CLR                                                                     
Freq      RB3LYP                                                      6-31G(d)            
Number of atoms                            I               33
Info1-9                                    I   N=           9
           9           7           0           0           0         101
           6          18        -502
Charge                                     I               -2
Multiplicity                               I                1
Number of electrons                        I              164
Number of alpha electrons                  I               82
Number of beta electrons                   I               82
Number of basis functions                  I              272
Number of independent functions            I              272
Number of point charges in /Mol/           I                0
Number of translation vectors              I                0
Atomic numbers                             I   N=          33
           1           6           1           6          16           1
           1           1           1           6           1           6
          16           1           1           1           1           6
           1           6          16           1           1           1
           1           6           1           6          16           1
           1           1          30
Nuclear charges                            R   N=          33
  1.00000000E+00  6.00000000E+00  1.00000000E+00  6.00000000E+00  1.60000000E+01
  1.00000000E+00  1.00000000E+00  1.00000000E+00  1.00000000E+00  6.00000000E+00
  1.00000000E+00  6.00000000E+00  1.60000000E+01  1.00000000E+00  1.00000000E+00
  1.00000000E+00  1.00000000E+00  6.00000000E+00  1.00000000E+00  6.00000000E+00
  1.60000000E+01  1.00000000E+00  1.00000000E+00  1.00000000E+00  1.00000000E+00
  6.00000000E+00  1.00000000E+00  6.00000000E+00  1.60000000E+01  1.00000000E+00
  1.00000000E+00  1.00000000E+00  3.00000000E+01
Current cartesian coordinates              R   N=          99
 -6.47756998E+00 -5.76172815E+00  2.85774792E+00 -5.86707920E+00 -4.43333094E+00
  1.36606359E+00 -7.41739807E+00 -4.23883116E+00  1.12182643E-04 -3.45608451E+00
 -5.34725424E+00  5.08815479E-02 -2.34897569E+00 -3.19241810E+00 -2.46153637E+00
 -5.54345508E+00 -2.57682354E+00  2.22199768E+00 -1.95609916E+00 -5.58026190E+00
  1.46059735E+00 -3.78902293E+00 -7.21983997E+00 -7.93607568E-01  5.97387173E+00
 -2.16827589E+00 -1.71839396E+00  6.46430568E+00 -1.37789024E+00 -3.56759469E+00
  7.88956174E+00  1.02213650E-01 -3.27353768E+00  4.09640045E+00 -2.89582335E-01
 -4.82662921E+00  2.59605227E+00  2.26901118E+00 -2.98398065E+00  7.32499471E+00
 -2.88559006E+00 -4.72937433E+00  4.58470926E+00  4.59712634E-01 -6.70563249E+00
  2.71734616E+00 -1.80823162E+00 -5.11027326E+00 -2.24499677E+00  5.32840413E+00
 -3.04993112E+00 -4.02088116E+00  5.90072179E+00 -2.15417740E+00 -3.64151837E+00
  7.59126509E+00 -1.01166841E+00 -5.03948974E+00  3.75218906E+00 -5.03904588E-01
 -2.89380287E+00  2.81624898E+00  2.08249453E+00 -5.37965182E+00  6.42212191E+00
 -3.65298361E+00 -6.85648438E+00  4.32274210E+00  3.35085856E-01 -5.40635513E+00
  2.08853934E+00 -1.68419864E+00  1.78755662E+00  3.04395941E+00  5.33043063E+00
  3.47919744E+00  2.12719343E+00  6.09236445E+00  4.82314064E+00  3.61417650E+00
  6.68034604E+00  4.64865132E+00  3.71064821E-01  4.11089836E+00  2.53966172E+00
 -2.21381287E+00  3.09325658E+00  2.91408600E+00  1.06163709E+00  7.78062230E+00
  5.19017670E+00  1.47682897E+00  2.44399886E+00  6.38635078E+00 -4.77327993E-01
  4.87943196E+00 -3.32110388E-02 -6.25941940E-02 -4.50642525E-02
Force Field                                I                0
Int Atom Types                             I   N=          33
           0           0           0           0           0           0
           0           0           0           0           0           0
           0           0           0           0           0           0
           0           0           0           0           0           0
           0           0           0           0           0           0
           0           0           0
MM charges                                 R   N=          33
  0.00000000E+00  0.00000000E+00  0.00000000E+00  0.00000000E+00  0.00000000E+00
  0.00000000E+00  0.00000000E+00  0.00000000E+00  0.00000000E+00  0.00000000E+00
  0.00000000E+00  0.00000000E+00  0.00000000E+00  0.00000000E+00  0.00000000E+00
  0.00000000E+00  0.00000000E+00  0.00000000E+00  0.00000000E+00  0.00000000E+00
  0.00000000E+00  0.00000000E+00  0.00000000E+00  0.00000000E+00  0.00000000E+00
  0.00000000E+00  0.00000000E+00  0.00000000E+00  0.00000000E+00  0.00000000E+00
  0.00000000E+00  0.00000000E+00  0.00000000E+00
Integer atomic weights                     I   N=          33
           1          12           1          12          32           1
           1           1           1          12           1          12
          32           1           1           1           1          12
           1          12          32           1           1           1
           1          12           1          12          32           1
           1           1          64
Real atomic weights                        R   N=          33
  1.00782504E+00  1.20000000E+01  1.00782504E+00  1.20000000E+01  3.19720718E+01
  1.00782504E+00  1.00782504E+00  1.00782504E+00  1.00782504E+00  1.20000000E+01
  1.00782504E+00  1.20000000E+01  3.19720718E+01  1.00782504E+00  1.00782504E+00
  1.00782504E+00  1.00782504E+00  1.20000000E+01  1.00782504E+00  1.20000000E+01
  3.19720718E+01  1.00782504E+00  1.00782504E+00  1.00782504E+00  1.00782504E+00
  1.20000000E+01  1.00782504E+00  1.20000000E+01  3.19720718E+01  1.00782504E+00
  1.00782504E+00  1.00782504E+00  6.39291454E+01
Atom fragment info                         I   N=          33
           0           0           0           0           0           0
           0           0           0           0           0           0
           0           0           0           0           0           0
           0           0           0           0           0           0
           0           0           0           0           0           0
           0           0           0
Atom residue num                           I   N=          33
           0           0           0           0           0           0
           0           0           0           0           0           0
           0           0           0           0           0           0
           0           0           0           0           0           0
           0           0           0           0           0           0
           0           0           0
Nuclear spins                              I   N=          33
           1           0           1           0           0           1
           1           1           1           0           1           0
           0           1           1           1           1           0
           1           0           0           1           1           1
           1           0           1           0           0           1
           1           1           0
Nuclear ZEff                               R   N=          33
 -1.00000000E+00 -3.60000000E+00 -1.00000000E+00 -3.60000000E+00 -1.36000000E+01
 -1.00000000E+00 -1.00000000E+00 -1.00000000E+00 -1.00000000E+00 -3.60000000E+00
 -1.00000000E+00 -3.60000000E+00 -1.36000000E+01 -1.00000000E+00 -1.00000000E+00
 -1.00000000E+00 -1.00000000E+00 -3.60000000E+00 -1.00000000E+00 -3.60000000E+00
 -1.36000000E+01 -1.00000000E+00 -1.00000000E+00 -1.00000000E+00 -1.00000000E+00
 -3.60000000E+00 -1.00000000E+00 -3.60000000E+00 -1.36000000E+01 -1.00000000E+00
 -1.00000000E+00 -1.00000000E+00 -2.55000000E+01
Nuclear QMom                               R   N=          33
  0.00000000E+00  0.00000000E+00  0.00000000E+00  0.00000000E+00  0.00000000E+00
  0.00000000E+00  0.00000000E+00  0.00000000E+00  0.00000000E+00  0.00000000E+00
  0.00000000E+00  0.00000000E+00  0.00000000E+00  0.00000000E+00  0.00000000E+00
  0.00000000E+00  0.00000000E+00  0.00000000E+00  0.00000000E+00  0.00000000E+00
  0.00000000E+00  0.00000000E+00  0.00000000E+00  0.00000000E+00  0.00000000E+00
  0.00000000E+00  0.00000000E+00  0.00000000E+00  0.00000000E+00  0.00000000E+00
  0.00000000E+00  0.00000000E+00  0.00000000E+00
Nuclear GFac                               R   N=          33
  2.79284600E+00  0.00000000E+00  2.79284600E+00  0.00000000E+00  0.00000000E+00
  2.79284600E+00  2.79284600E+00  2.79284600E+00  2.79284600E+00  0.00000000E+00
  2.79284600E+00  0.00000000E+00  0.00000000E+00  2.79284600E+00  2.79284600E+00
  2.79284600E+00  2.79284600E+00  0.00000000E+00  2.79284600E+00  0.00000000E+00
  0.00000000E+00  2.79284600E+00  2.79284600E+00  2.79284600E+00  2.79284600E+00
  0.00000000E+00  2.79284600E+00  0.00000000E+00  0.00000000E+00  2.79284600E+00
  2.79284600E+00  2.79284600E+00  0.00000000E+00
MicOpt                                     I   N=          33
          -1          -1          -1          -1          -1          -1
          -1          -1          -1          -1          -1          -1
          -1          -1          -1          -1          -1          -1
          -1          -1          -1          -1          -1          -1
          -1          -1          -1          -1          -1          -1
          -1          -1          -1
Number of contracted shells                I              100
Number of primitive shells                 I              263
Pure/Cartesian d shells                    I                1
Pure/Cartesian f shells                    I                0
Highest angular momentum                   I                3
Largest degree of contraction              I                6
Shell types                                I   N=         100
           0           0           0          -1          -1           2
           0           0           0          -1          -1           2
           0          -1          -1          -1           2           0
           0           0           0           0           0           0
           0           0          -1          -1           2           0
           0           0          -1          -1           2           0
          -1          -1          -1           2           0           0
           0           0           0           0           0           0
           0          -1          -1           2           0           0
           0          -1          -1           2           0          -1
          -1          -1           2           0           0           0
           0           0           0           0           0           0
          -1          -1           2           0           0           0
          -1          -1           2           0          -1          -1
          -1           2           0           0           0           0
           0           0           0          -1          -1          -1
          -1           2           2          -3
Number of primitives per shell             I   N=         100
           3           1           6           3           1           1
           3           1           6           3           1           1
           6           6           3           1           1           3
           1           3           1           3           1           3
           1           6           3           1           1           3
           1           6           3           1           1           6
           6           3           1           1           3           1
           3           1           3           1           3           1
           6           3           1           1           3           1
           6           3           1           1           6           6
           3           1           1           3           1           3
           1           3           1           3           1           6
           3           1           1           3           1           6
           3           1           1           6           6           3
           1           1           3           1           3           1
           3           1           6           6           6           3
           1           3           1           1
Shell to atom map                          I   N=         100
           1           1           2           2           2           2
           3           3           4           4           4           4
           5           5           5           5           5           6
           6           7           7           8           8           9
           9          10          10          10          10          11
          11          12          12          12          12          13
          13          13          13          13          14          14
          15          15          16          16          17          17
          18          18          18          18          19          19
          20          20          20          20          21          21
          21          21          21          22          22          23
          23          24          24          25          25          26
          26          26          26          27          27          28
          28          28          28          29          29          29
          29          29          30          30          31          31
          32          32          33          33          33          33
          33          33          33          33
Primitive exponents                        R   N=         263
  1.87311370E+01  2.82539436E+00  6.40121692E-01  1.61277759E-01  3.04752488E+03
  4.57369518E+02  1.03948685E+02  2.92101553E+01  9.28666296E+00  3.16392696E+00
  7.86827235E+00  1.88128854E+00  5.44249258E-01  1.68714478E-01  8.00000000E-01
  1.87311370E+01  2.82539436E+00  6.40121692E-01  1.61277759E-01  3.04752488E+03
  4.57369518E+02  1.03948685E+02  2.92101553E+01  9.28666296E+00  3.16392696E+00
  7.86827235E+00  1.88128854E+00  5.44249258E-01  1.68714478E-01  8.00000000E-01
  2.19171000E+04  3.30149000E+03  7.54146000E+02  2.12711000E+02  6.79896000E+01
  2.30515000E+01  4.23735000E+02  1.00710000E+02  3.21599000E+01  1.18079000E+01
  4.63110000E+00  1.87025000E+00  2.61584000E+00  9.22167000E-01  3.41287000E-01
  1.17167000E-01  6.50000000E-01  1.87311370E+01  2.82539436E+00  6.40121692E-01
  1.61277759E-01  1.87311370E+01  2.82539436E+00  6.40121692E-01  1.61277759E-01
  1.87311370E+01  2.82539436E+00  6.40121692E-01  1.61277759E-01  1.87311370E+01
  2.82539436E+00  6.40121692E-01  1.61277759E-01  3.04752488E+03  4.57369518E+02
  1.03948685E+02  2.92101553E+01  9.28666296E+00  3.16392696E+00  7.86827235E+00
  1.88128854E+00  5.44249258E-01  1.68714478E-01  8.00000000E-01  1.87311370E+01
  2.82539436E+00  6.40121692E-01  1.61277759E-01  3.04752488E+03  4.57369518E+02
  1.03948685E+02  2.92101553E+01  9.28666296E+00  3.16392696E+00  7.86827235E+00
  1.88128854E+00  5.44249258E-01  1.68714478E-01  8.00000000E-01  2.19171000E+04
  3.30149000E+03  7.54146000E+02  2.12711000E+02  6.79896000E+01  2.30515000E+01
  4.23735000E+02  1.00710000E+02  3.21599000E+01  1.18079000E+01  4.63110000E+00
  1.87025000E+00  2.61584000E+00  9.22167000E-01  3.41287000E-01  1.17167000E-01
  6.50000000E-01  1.87311370E+01  2.82539436E+00  6.40121692E-01  1.61277759E-01
  1.87311370E+01  2.82539436E+00  6.40121692E-01  1.61277759E-01  1.87311370E+01
  2.82539436E+00  6.40121692E-01  1.61277759E-01  1.87311370E+01  2.82539436E+00
  6.40121692E-01  1.61277759E-01  3.04752488E+03  4.57369518E+02  1.03948685E+02
  2.92101553E+01  9.28666296E+00  3.16392696E+00  7.86827235E+00  1.88128854E+00
  5.44249258E-01  1.68714478E-01  8.00000000E-01  1.87311370E+01  2.82539436E+00
  6.40121692E-01  1.61277759E-01  3.04752488E+03  4.57369518E+02  1.03948685E+02
  2.92101553E+01  9.28666296E+00  3.16392696E+00  7.86827235E+00  1.88128854E+00
  5.44249258E-01  1.68714478E-01  8.00000000E-01  2.19171000E+04  3.30149000E+03
  7.54146000E+02  2.12711000E+02  6.79896000E+01  2.30515000E+01  4.23735000E+02
  1.00710000E+02  3.21599000E+01  1.18079000E+01  4.63110000E+00  1.87025000E+00
  2.61584000E+00  9.22167000E-01  3.41287000E-01  1.17167000E-01  6.50000000E-01
  1.87311370E+01  2.82539436E+00  6.40121692E-01  1.61277759E-01  1.87311370E+01
  2.82539436E+00  6.40121692E-01  1.61277759E-01  1.87311370E+01  2.82539436E+00
  6.40121692E-01  1.61277759E-01  1.87311370E+01  2.82539436E+00  6.40121692E-01
  1.61277759E-01  3.04752488E+03  4.57369518E+02  1.03948685E+02  2.92101553E+01
  9.28666296E+00  3.16392696E+00  7.86827235E+00  1.88128854E+00  5.44249258E-01
  1.68714478E-01  8.00000000E-01  1.87311370E+01  2.82539436E+00  6.40121692E-01
  1.61277759E-01  3.04752488E+03  4.57369518E+02  1.03948685E+02  2.92101553E+01
  9.28666296E+00  3.16392696E+00  7.86827235E+00  1.88128854E+00  5.44249258E-01
  1.68714478E-01  8.00000000E-01  2.19171000E+04  3.30149000E+03  7.54146000E+02
  2.12711000E+02  6.79896000E+01  2.30515000E+01  4.23735000E+02  1.00710000E+02
  3.21599000E+01  1.18079000E+01  4.63110000E+00  1.87025000E+00  2.61584000E+00
  9.22167000E-01  3.41287000E-01  1.17167000E-01  6.50000000E-01  1.87311370E+01
  2.82539436E+00  6.40121692E-01  1.61277759E-01  1.87311370E+01  2.82539436E+00
  6.40121692E-01  1.61277759E-01  1.87311370E+01  2.82539436E+00  6.40121692E-01
  1.61277759E-01  8.24009400E+04  1.23725500E+04  2.81835100E+03  7.94571700E+02
  2.54723200E+02  8.71388000E+01  1.73256900E+03  4.12714900E+02  1.33678000E+02
  5.03858500E+01  2.05835800E+01  8.50594000E+00  6.93649200E+01  2.36208200E+01
  1.01847100E+01  4.33408200E+00  1.81091800E+00  7.14841000E-01  2.82384200E+00
  1.03954300E+00  1.43264000E-01  4.92960000E-02  3.37076400E+01  9.06110600E+00
  2.73838300E+00  7.30294000E-01  8.00000000E-01
Contraction coefficients                   R   N=         263
  3.34946043E-02  2.34726953E-01  8.13757326E-01  1.00000000E+00  1.83473713E-03
  1.40373228E-02  6.88426223E-02  2.32184443E-01  4.67941348E-01  3.62311985E-01
 -1.19332420E-01 -1.60854152E-01  1.14345644E+00  1.00000000E+00  1.00000000E+00
  3.34946043E-02  2.34726953E-01  8.13757326E-01  1.00000000E+00  1.83473713E-03
  1.40373228E-02  6.88426223E-02  2.32184443E-01  4.67941348E-01  3.62311985E-01
 -1.19332420E-01 -1.60854152E-01  1.14345644E+00  1.00000000E+00  1.00000000E+00
  1.86924085E-03  1.42303065E-02  6.96962317E-02  2.38487108E-01  4.83307220E-01
  3.38074154E-01 -2.37677050E-03 -3.16930067E-02 -1.13317024E-01  5.60900118E-02
  5.92255124E-01  4.55006095E-01 -2.50373114E-01  6.69567631E-02  1.05450627E+00
  1.00000000E+00  1.00000000E+00  3.34946043E-02  2.34726953E-01  8.13757326E-01
  1.00000000E+00  3.34946043E-02  2.34726953E-01  8.13757326E-01  1.00000000E+00
  3.34946043E-02  2.34726953E-01  8.13757326E-01  1.00000000E+00  3.34946043E-02
  2.34726953E-01  8.13757326E-01  1.00000000E+00  1.83473713E-03  1.40373228E-02
  6.88426223E-02  2.32184443E-01  4.67941348E-01  3.62311985E-01 -1.19332420E-01
 -1.60854152E-01  1.14345644E+00  1.00000000E+00  1.00000000E+00  3.34946043E-02
  2.34726953E-01  8.13757326E-01  1.00000000E+00  1.83473713E-03  1.40373228E-02
  6.88426223E-02  2.32184443E-01  4.67941348E-01  3.62311985E-01 -1.19332420E-01
 -1.60854152E-01  1.14345644E+00  1.00000000E+00  1.00000000E+00  1.86924085E-03
  1.42303065E-02  6.96962317E-02  2.38487108E-01  4.83307220E-01  3.38074154E-01
 -2.37677050E-03 -3.16930067E-02 -1.13317024E-01  5.60900118E-02  5.92255124E-01
  4.55006095E-01 -2.50373114E-01  6.69567631E-02  1.05450627E+00  1.00000000E+00
  1.00000000E+00  3.34946043E-02  2.34726953E-01  8.13757326E-01  1.00000000E+00
  3.34946043E-02  2.34726953E-01  8.13757326E-01  1.00000000E+00  3.34946043E-02
  2.34726953E-01  8.13757326E-01  1.00000000E+00  3.34946043E-02  2.34726953E-01
  8.13757326E-01  1.00000000E+00  1.83473713E-03  1.40373228E-02  6.88426223E-02
  2.32184443E-01  4.67941348E-01  3.62311985E-01 -1.19332420E-01 -1.60854152E-01
  1.14345644E+00  1.00000000E+00  1.00000000E+00  3.34946043E-02  2.34726953E-01
  8.13757326E-01  1.00000000E+00  1.83473713E-03  1.40373228E-02  6.88426223E-02
  2.32184443E-01  4.67941348E-01  3.62311985E-01 -1.19332420E-01 -1.60854152E-01
  1.14345644E+00  1.00000000E+00  1.00000000E+00  1.86924085E-03  1.42303065E-02
  6.96962317E-02  2.38487108E-01  4.83307220E-01  3.38074154E-01 -2.37677050E-03
 -3.16930067E-02 -1.13317024E-01  5.60900118E-02  5.92255124E-01  4.55006095E-01
 -2.50373114E-01  6.69567631E-02  1.05450627E+00  1.00000000E+00  1.00000000E+00
  3.34946043E-02  2.34726953E-01  8.13757326E-01  1.00000000E+00  3.34946043E-02
  2.34726953E-01  8.13757326E-01  1.00000000E+00  3.34946043E-02  2.34726953E-01
  8.13757326E-01  1.00000000E+00  3.34946043E-02  2.34726953E-01  8.13757326E-01
  1.00000000E+00  1.83473713E-03  1.40373228E-02  6.88426223E-02  2.32184443E-01
  4.67941348E-01  3.62311985E-01 -1.19332420E-01 -1.60854152E-01  1.14345644E+00
  1.00000000E+00  1.00000000E+00  3.34946043E-02  2.34726953E-01  8.13757326E-01
  1.00000000E+00  1.83473713E-03  1.40373228E-02  6.88426223E-02  2.32184443E-01
  4.67941348E-01  3.62311985E-01 -1.19332420E-01 -1.60854152E-01  1.14345644E+00
  1.00000000E+00  1.00000000E+00  1.86924085E-03  1.42303065E-02  6.96962317E-02
  2.38487108E-01  4.83307220E-01  3.38074154E-01 -2.37677050E-03 -3.16930067E-02
 -1.13317024E-01  5.60900118E-02  5.92255124E-01  4.55006095E-01 -2.50373114E-01
  6.69567631E-02  1.05450627E+00  1.00000000E+00  1.00000000E+00  3.34946043E-02
  2.34726953E-01  8.13757326E-01  1.00000000E+00  3.34946043E-02  2.34726953E-01
  8.13757326E-01  1.00000000E+00  3.34946043E-02  2.34726953E-01  8.13757326E-01
  1.00000000E+00  1.74332899E-03  1.33596599E-02  6.59436496E-02  2.29415098E-01
  4.78545297E-01  3.53775298E-01  2.36145909E-03  3.15017712E-02  1.27277405E-01
 -2.14592808E-02 -6.19765223E-01 -4.59018017E-01 -4.44009818E-03  7.50525331E-02
  2.53311110E-01 -2.88189712E-01 -7.26705230E-01 -2.13343909E-01  4.89854503E-02
  2.59279408E-01 -1.11571146E+00  1.00000000E+00  9.26264782E-02  4.00297992E-01
  6.89660786E-01  1.00000000E+00  1.00000000E+00
P(S=P) Contraction coefficients            R   N=         263
  0.00000000E+00  0.00000000E+00  0.00000000E+00  0.00000000E+00  0.00000000E+00
  0.00000000E+00  0.00000000E+00  0.00000000E+00  0.00000000E+00  0.00000000E+00
  6.89990666E-02  3.16423961E-01  7.44308291E-01  1.00000000E+00  0.00000000E+00
  0.00000000E+00  0.00000000E+00  0.00000000E+00  0.00000000E+00  0.00000000E+00
  0.00000000E+00  0.00000000E+00  0.00000000E+00  0.00000000E+00  0.00000000E+00
  6.89990666E-02  3.16423961E-01  7.44308291E-01  1.00000000E+00  0.00000000E+00
  0.00000000E+00  0.00000000E+00  0.00000000E+00  0.00000000E+00  0.00000000E+00
  0.00000000E+00  4.06100998E-03  3.06812999E-02  1.30451999E-01  3.27204999E-01
  4.52850998E-01  2.56041999E-01 -1.45104895E-02  3.10262776E-01  7.54482456E-01
  1.00000000E+00  0.00000000E+00  0.00000000E+00  0.00000000E+00  0.00000000E+00
  0.00000000E+00  0.00000000E+00  0.00000000E+00  0.00000000E+00  0.00000000E+00
  0.00000000E+00  0.00000000E+00  0.00000000E+00  0.00000000E+00  0.00000000E+00
  0.00000000E+00  0.00000000E+00  0.00000000E+00  0.00000000E+00  0.00000000E+00
  0.00000000E+00  0.00000000E+00  0.00000000E+00  0.00000000E+00  6.89990666E-02
  3.16423961E-01  7.44308291E-01  1.00000000E+00  0.00000000E+00  0.00000000E+00
  0.00000000E+00  0.00000000E+00  0.00000000E+00  0.00000000E+00  0.00000000E+00
  0.00000000E+00  0.00000000E+00  0.00000000E+00  0.00000000E+00  6.89990666E-02
  3.16423961E-01  7.44308291E-01  1.00000000E+00  0.00000000E+00  0.00000000E+00
  0.00000000E+00  0.00000000E+00  0.00000000E+00  0.00000000E+00  0.00000000E+00
  4.06100998E-03  3.06812999E-02  1.30451999E-01  3.27204999E-01  4.52850998E-01
  2.56041999E-01 -1.45104895E-02  3.10262776E-01  7.54482456E-01  1.00000000E+00
  0.00000000E+00  0.00000000E+00  0.00000000E+00  0.00000000E+00  0.00000000E+00
  0.00000000E+00  0.00000000E+00  0.00000000E+00  0.00000000E+00  0.00000000E+00
  0.00000000E+00  0.00000000E+00  0.00000000E+00  0.00000000E+00  0.00000000E+00
  0.00000000E+00  0.00000000E+00  0.00000000E+00  0.00000000E+00  0.00000000E+00
  0.00000000E+00  0.00000000E+00  0.00000000E+00  6.89990666E-02  3.16423961E-01
  7.44308291E-01  1.00000000E+00  0.00000000E+00  0.00000000E+00  0.00000000E+00
  0.00000000E+00  0.00000000E+00  0.00000000E+00  0.00000000E+00  0.00000000E+00
  0.00000000E+00  0.00000000E+00  0.00000000E+00  6.89990666E-02  3.16423961E-01
  7.44308291E-01  1.00000000E+00  0.00000000E+00  0.00000000E+00  0.00000000E+00
  0.00000000E+00  0.00000000E+00  0.00000000E+00  0.00000000E+00  4.06100998E-03
  3.06812999E-02  1.30451999E-01  3.27204999E-01  4.52850998E-01  2.56041999E-01
 -1.45104895E-02  3.10262776E-01  7.54482456E-01  1.00000000E+00  0.00000000E+00
  0.00000000E+00  0.00000000E+00  0.00000000E+00  0.00000000E+00  0.00000000E+00
  0.00000000E+00  0.00000000E+00  0.00000000E+00  0.00000000E+00  0.00000000E+00
  0.00000000E+00  0.00000000E+00  0.00000000E+00  0.00000000E+00  0.00000000E+00
  0.00000000E+00  0.00000000E+00  0.00000000E+00  0.00000000E+00  0.00000000E+00
  0.00000000E+00  0.00000000E+00  6.89990666E-02  3.16423961E-01  7.44308291E-01
  1.00000000E+00  0.00000000E+00  0.00000000E+00  0.00000000E+00  0.00000000E+00
  0.00000000E+00  0.00000000E+00  0.00000000E+00  0.00000000E+00  0.00000000E+00
  0.00000000E+00  0.00000000E+00  6.89990666E-02  3.16423961E-01  7.44308291E-01
  1.00000000E+00  0.00000000E+00  0.00000000E+00  0.00000000E+00  0.00000000E+00
  0.00000000E+00  0.00000000E+00  0.00000000E+00  4.06100998E-03  3.06812999E-02
  1.30451999E-01  3.27204999E-01  4.52850998E-01  2.56041999E-01 -1.45104895E-02
  3.10262776E-01  7.54482456E-01  1.00000000E+00  0.00000000E+00  0.00000000E+00
  0.00000000E+00  0.00000000E+00  0.00000000E+00  0.00000000E+00  0.00000000E+00
  0.00000000E+00  0.00000000E+00  0.00000000E+00  0.00000000E+00  0.00000000E+00
  0.00000000E+00  0.00000000E+00  0.00000000E+00  0.00000000E+00  0.00000000E+00
  0.00000000E+00  0.00000000E+00  3.96312505E-03  3.11341104E-02  1.36393102E-01
  3.50126605E-01  4.62317906E-01  2.00499503E-01 -7.68926181E-03 -2.99798192E-02
  7.08241082E-02  4.04614090E-01  4.88232488E-01  1.75196996E-01 -1.58676298E-01
  8.37932690E-02  9.84054688E-01  1.00000000E+00  0.00000000E+00  0.00000000E+00
  0.00000000E+00  0.00000000E+00  0.00000000E+00
Coordinates of each shell                  R   N=         300
 -6.47756998E+00 -5.76172815E+00  2.85774792E+00 -6.47756998E+00 -5.76172815E+00
  2.85774792E+00 -5.86707920E+00 -4.43333094E+00  1.36606359E+00 -5.86707920E+00
 -4.43333094E+00  1.36606359E+00 -5.86707920E+00 -4.43333094E+00  1.36606359E+00
 -5.86707920E+00 -4.43333094E+00  1.36606359E+00 -7.41739807E+00 -4.23883116E+00
  1.12182643E-04 -7.41739807E+00 -4.23883116E+00  1.12182643E-04 -3.45608451E+00
 -5.34725424E+00  5.08815479E-02 -3.45608451E+00 -5.34725424E+00  5.08815479E-02
 -3.45608451E+00 -5.34725424E+00  5.08815479E-02 -3.45608451E+00 -5.34725424E+00
  5.08815479E-02 -2.34897569E+00 -3.19241810E+00 -2.46153637E+00 -2.34897569E+00
 -3.19241810E+00 -2.46153637E+00 -2.34897569E+00 -3.19241810E+00 -2.46153637E+00
 -2.34897569E+00 -3.19241810E+00 -2.46153637E+00 -2.34897569E+00 -3.19241810E+00
 -2.46153637E+00 -5.54345508E+00 -2.57682354E+00  2.22199768E+00 -5.54345508E+00
 -2.57682354E+00  2.22199768E+00 -1.95609916E+00 -5.58026190E+00  1.46059735E+00
 -1.95609916E+00 -5.58026190E+00  1.46059735E+00 -3.78902293E+00 -7.21983997E+00
 -7.93607568E-01 -3.78902293E+00 -7.21983997E+00 -7.93607568E-01  5.97387173E+00
 -2.16827589E+00 -1.71839396E+00  5.97387173E+00 -2.16827589E+00 -1.71839396E+00
  6.46430568E+00 -1.37789024E+00 -3.56759469E+00  6.46430568E+00 -1.37789024E+00
 -3.56759469E+00  6.46430568E+00 -1.37789024E+00 -3.56759469E+00  6.46430568E+00
 -1.37789024E+00 -3.56759469E+00  7.88956174E+00  1.02213650E-01 -3.27353768E+00
  7.88956174E+00  1.02213650E-01 -3.27353768E+00  4.09640045E+00 -2.89582335E-01
 -4.82662921E+00  4.09640045E+00 -2.89582335E-01 -4.82662921E+00  4.09640045E+00
 -2.89582335E-01 -4.82662921E+00  4.09640045E+00 -2.89582335E-01 -4.82662921E+00
  2.59605227E+00  2.26901118E+00 -2.98398065E+00  2.59605227E+00  2.26901118E+00
 -2.98398065E+00  2.59605227E+00  2.26901118E+00 -2.98398065E+00  2.59605227E+00
  2.26901118E+00 -2.98398065E+00  2.59605227E+00  2.26901118E+00 -2.98398065E+00
  7.32499471E+00 -2.88559006E+00 -4.72937433E+00  7.32499471E+00 -2.88559006E+00
 -4.72937433E+00  4.58470926E+00  4.59712634E-01 -6.70563249E+00  4.58470926E+00
  4.59712634E-01 -6.70563249E+00  2.71734616E+00 -1.80823162E+00 -5.11027326E+00
  2.71734616E+00 -1.80823162E+00 -5.11027326E+00 -2.24499677E+00  5.32840413E+00
 -3.04993112E+00 -2.24499677E+00  5.32840413E+00 -3.04993112E+00 -4.02088116E+00
  5.90072179E+00 -2.15417740E+00 -4.02088116E+00  5.90072179E+00 -2.15417740E+00
 -4.02088116E+00  5.90072179E+00 -2.15417740E+00 -4.02088116E+00  5.90072179E+00
 -2.15417740E+00 -3.64151837E+00  7.59126509E+00 -1.01166841E+00 -3.64151837E+00
  7.59126509E+00 -1.01166841E+00 -5.03948974E+00  3.75218906E+00 -5.03904588E-01
 -5.03948974E+00  3.75218906E+00 -5.03904588E-01 -5.03948974E+00  3.75218906E+00
 -5.03904588E-01 -5.03948974E+00  3.75218906E+00 -5.03904588E-01 -2.89380287E+00
  2.81624898E+00  2.08249453E+00 -2.89380287E+00  2.81624898E+00  2.08249453E+00
 -2.89380287E+00  2.81624898E+00  2.08249453E+00 -2.89380287E+00  2.81624898E+00
  2.08249453E+00 -2.89380287E+00  2.81624898E+00  2.08249453E+00 -5.37965182E+00
  6.42212191E+00 -3.65298361E+00 -5.37965182E+00  6.42212191E+00 -3.65298361E+00
 -6.85648438E+00  4.32274210E+00  3.35085856E-01 -6.85648438E+00  4.32274210E+00