 Entering Gaussian System, Link 0=g09
 Initial command:
 /apps/gaussian/g09/amd-sse4/l1.exe /scratch/lfs/pengfei/QM/1A5T_g09/mk/Gau-6558.inp -scrdir=/scratch/lfs/pengfei/QM/1A5T_g09/mk/
 Entering Link 1 = /apps/gaussian/g09/amd-sse4/l1.exe PID=      6559.
  
 Copyright (c) 1988,1990,1992,1993,1995,1998,2003,2009,2011,
            Gaussian, Inc.  All Rights Reserved.
  
 This is part of the Gaussian(R) 09 program.  It is based on
 the Gaussian(R) 03 system (copyright 2003, Gaussian, Inc.),
 the Gaussian(R) 98 system (copyright 1998, Gaussian, Inc.),
 the Gaussian(R) 94 system (copyright 1995, Gaussian, Inc.),
 the Gaussian 92(TM) system (copyright 1992, Gaussian, Inc.),
 the Gaussian 90(TM) system (copyright 1990, Gaussian, Inc.),
 the Gaussian 88(TM) system (copyright 1988, Gaussian, Inc.),
 the Gaussian 86(TM) system (copyright 1986, Carnegie Mellon
 University), and the Gaussian 82(TM) system (copyright 1983,
 Carnegie Mellon University). Gaussian is a federally registered
 trademark of Gaussian, Inc.
  
 This software contains proprietary and confidential information,
 including trade secrets, belonging to Gaussian, Inc.
  
 This software is provided under written license and may be
 used, copied, transmitted, or stored only in accord with that
 written license.
  
 The following legend is applicable only to US Government
 contracts under FAR:
  
                    RESTRICTED RIGHTS LEGEND
  
 Use, reproduction and disclosure by the US Government is
 subject to restrictions as set forth in subparagraphs (a)
 and (c) of the Commercial Computer Software - Restricted
 Rights clause in FAR 52.227-19.
  
 Gaussian, Inc.
 340 Quinnipiac St., Bldg. 40, Wallingford CT 06492
  
  
 ---------------------------------------------------------------
 Warning -- This program may not be used in any manner that
 competes with the business of Gaussian, Inc. or will provide
 assistance to any competitor of Gaussian, Inc.  The licensee
 of this program is prohibited from giving any competitor of
 Gaussian, Inc. access to this program.  By using this program,
 the user acknowledges that Gaussian, Inc. is engaged in the
 business of creating and licensing software in the field of
 computational chemistry and represents and warrants to the
 licensee that it is not a competitor of Gaussian, Inc. and that
 it will not use this program in any manner prohibited above.
 ---------------------------------------------------------------
  

 Cite this work as:
 Gaussian 09, Revision C.01,
 M. J. Frisch, G. W. Trucks, H. B. Schlegel, G. E. Scuseria, 
 M. A. Robb, J. R. Cheeseman, G. Scalmani, V. Barone, B. Mennucci, 
 G. A. Petersson, H. Nakatsuji, M. Caricato, X. Li, H. P. Hratchian, 
 A. F. Izmaylov, J. Bloino, G. Zheng, J. L. Sonnenberg, M. Hada, 
 M. Ehara, K. Toyota, R. Fukuda, J. Hasegawa, M. Ishida, T. Nakajima, 
 Y. Honda, O. Kitao, H. Nakai, T. Vreven, J. A. Montgomery, Jr., 
 J. E. Peralta, F. Ogliaro, M. Bearpark, J. J. Heyd, E. Brothers, 
 K. N. Kudin, V. N. Staroverov, T. Keith, R. Kobayashi, J. Normand, 
 K. Raghavachari, A. Rendell, J. C. Burant, S. S. Iyengar, J. Tomasi, 
 M. Cossi, N. Rega, J. M. Millam, M. Klene, J. E. Knox, J. B. Cross, 
 V. Bakken, C. Adamo, J. Jaramillo, R. Gomperts, R. E. Stratmann, 
 O. Yazyev, A. J. Austin, R. Cammi, C. Pomelli, J. W. Ochterski, 
 R. L. Martin, K. Morokuma, V. G. Zakrzewski, G. A. Voth, 
 P. Salvador, J. J. Dannenberg, S. Dapprich, A. D. Daniels, 
 O. Farkas, J. B. Foresman, J. V. Ortiz, J. Cioslowski, 
 and D. J. Fox, Gaussian, Inc., Wallingford CT, 2010.
 
 ******************************************
 Gaussian 09:  AM64L-G09RevC.01 23-Sep-2011
                14-Aug-2015 
 ******************************************
 %Chk=1A5T_large_mk.chk
 %Mem=6000MB
 %NProcShared=12
 Will use up to   12 processors via shared memory.
 ----------------------------------------------------------------------
 #N B3LYP/6-31G* Integral=(Grid=UltraFine) Pop(MK,ReadRadii) SCF=XQC IO
 p(6/33=2)
 ----------------------------------------------------------------------
 1/38=1/1;
 2/12=2,17=6,18=5,40=1/2;
 3/5=1,6=6,7=1,11=2,16=1,25=1,30=1,74=-5,75=-5/1,2,3;
 4//1;
 5/5=2,8=3,13=1,38=5/2,8;
 6/7=2,8=2,9=2,10=2,15=8,20=101,28=1,33=2/1,2;
 99/5=1,9=1/99;
 ---
 CLR
 ---
 Charge = -2 Multiplicity = 1
 Symbolic Z-Matrix:
 H                     19.368    53.242    51.265 
 C                     19.778    54.251    51.212 
 C                     18.904    55.134    50.319 
 O                     19.264    56.288    50.038 
 H                     20.809    54.225    50.86 
 H                     19.813    54.682    52.212 
 N                     17.791    54.601    49.826 
 C                     16.907    55.427    49.022 
 C                     16.024    56.213    49.989 
 O                     15.317    55.653    50.829 
 C                     16.045    54.627    48.05 
 S                     15.055    55.715    46.973 
 H                     17.572    53.633    50.014 
 H                     17.501    56.104    48.407 
 H                     16.685    54.01     47.419 
 H                     15.363    53.987    48.61 
 N                     16.101    57.533    49.881 
 C                     15.329    58.396    50.755 
 H                     14.278    58.431    50.468 
 H                     15.754    59.4      50.751 
 H                     16.703    57.945    49.183 
 H                     15.39     58.026    51.778 
 H                     15.071    51.842    44.355 
 C                     15.55     52.786    44.613 
 C                     14.921    53.743    43.57 
 O                     14.653    53.316    42.449 
 H                     16.615    52.67     44.41 
 H                     15.306    53.049    45.642 
 N                     14.67     55.011    43.896 
 C                     14.057    55.891    42.884 
 C                     15.017    56.344    41.773 
 O                     14.613    56.524    40.62 
 C                     13.39     57.099    43.544 
 S                     14.531    58.159    44.482 
 H                     14.9      55.347    44.82 
 H                     13.233    55.368    42.399 
 H                     12.929    57.724    42.779 
 H                     12.625    56.757    44.241 
 N                     16.287    56.546    42.123 
 C                     17.289    56.993    41.151 
 C                     17.319    58.499    40.93 
 O                     18.013    58.971    40.04 
 H                     16.575    56.39     43.078 
 H                     18.282    56.701    41.492 
 H                     17.088    56.533    40.183 
 N                     16.606    59.235    41.784 
 C                     16.476    60.687    41.721 
 C                     16.819    61.4      43.03 
 O                     17.517    62.407    42.995 
 H                     15.456    60.949    41.44 
 H                     16.108    58.786    42.54 
 H                     17.146    61.079    40.956 
 N                     16.342    60.894    44.168 
 C                     16.609    61.52     45.47 
 C                     18.102    61.749    45.643 
 O                     18.909    61.12     44.947 
 C                     16.075    60.662    46.631 
 S                     17.056    59.153    47.047 
 H                     15.779    60.056    44.148 
 H                     16.092    62.478    45.526 
 H                     16.044    61.261    47.541 
 H                     15.071    60.311    46.392 
 N                     18.482    62.62     46.575 
 C                     19.906    62.921    46.785 
 C                     20.759    61.711    47.188 
 O                     21.928    61.589    46.784 
 H                     20.044    63.745    47.485 
 H                     17.787    63.08     47.145 
 H                     20.334    63.317    45.864 
 N                     20.16     60.808    47.963 
 C                     20.858    59.609    48.41 
 C                     21.27     58.767    47.232 
 O                     22.399    58.286    47.174 
 H                     19.202    60.95     48.251 
 H                     21.749    59.894    48.969 
 H                     20.2      59.022    49.051 
 N                     20.342    58.574    46.298 
 C                     20.622    57.804    45.085 
 C                     21.647    58.549    44.244 
 O                     22.493    57.919    43.615 
 C                     19.34     57.582    44.265 
 S                     18.138    56.425    45. 
 H                     19.418    58.964    46.42 
 H                     21.016    56.825    45.358 
 H                     18.819    58.531    44.14 
 H                     19.599    57.179    43.286 
 N                     21.559    59.881    44.217 
 C                     22.501    60.696    43.447 
 H                     23.514    60.542    43.819 
 H                     22.224    61.75     43.48 
 H                     20.829    60.346    44.737 
 H                     22.456    60.409    42.396 
 Zn                    16.2      57.412    45.833 
 
 Stoichiometry    C26H42N10O10S4Zn(2-)
 Framework group  C1[X(C26H42N10O10S4Zn)]
 Deg. of freedom   273
 Full point group                 C1      NOp   1
 Largest Abelian subgroup         C1      NOp   1
 Largest concise Abelian subgroup C1      NOp   1
                         Standard orientation:                         
 ---------------------------------------------------------------------
 Center     Atomic      Atomic             Coordinates (Angstroms)
 Number     Number       Type             X           Y           Z
 ---------------------------------------------------------------------
      1          1           0       -1.042989    7.050161    2.681741
      2          6           0       -0.068682    6.707814    2.331721
      3          6           0       -0.229875    5.496698    1.410728
      4          8           0        0.770197    4.887773    0.999215
      5          1           0        0.581642    6.482243    3.176551
      6          1           0        0.421902    7.509689    1.780984
      7          7           0       -1.465710    5.103673    1.120645
      8          6           0       -1.658074    3.993975    0.203194
      9          6           0       -1.577058    4.562203   -1.212125
     10          8           0       -2.318892    5.469140   -1.594480
     11          6           0       -2.981500    3.261850    0.404099
     12         16           0       -3.114806    1.799636   -0.676611
     13          1           0       -2.254100    5.577394    1.538208
     14          1           0       -0.877424    3.249545    0.363811
     15          1           0       -3.060906    2.931205    1.439869
     16          1           0       -3.808156    3.934183    0.174031
     17          7           0       -0.633305    4.034874   -1.981052
     18          6           0       -0.436740    4.500842   -3.340781
     19          1           0       -1.203303    4.120935   -4.016242
     20          1           0        0.553025    4.207602   -3.691544
     21          1           0       -0.043302    3.300112   -1.618598
     22          1           0       -0.474709    5.589552   -3.361271
     23          1           0       -6.210523    0.610837    2.618477
     24          6           0       -5.179486    0.588625    2.266893
     25          6           0       -5.142253   -0.764769    1.514379
     26          8           0       -5.815089   -1.703564    1.934797
     27          1           0       -4.541793    0.535827    3.149757
     28          1           0       -4.996481    1.446685    1.620528
     29          7           0       -4.392258   -0.897873    0.420354
     30          6           0       -4.391423   -2.195366   -0.280237
     31          6           0       -3.590488   -3.298189    0.429280
     32          8           0       -3.947357   -4.478959    0.370552
     33          6           0       -3.919762   -2.033879   -1.726339
     34         16           0       -2.226342   -1.392821   -1.889723
     35          1           0       -3.842216   -0.117969    0.090542
     36          1           0       -5.414998   -2.557025   -0.376293
     37          1           0       -3.945104   -3.001273   -2.228212
     38          1           0       -4.576874   -1.338320   -2.248258
     39          7           0       -2.495664   -2.916257    1.086313
     40          6           0       -1.645643   -3.882512    1.788035
     41          6           0       -0.626322   -4.581489    0.899108
     42          8           0        0.037347   -5.507776    1.344142
     43          1           0       -2.237745   -1.940364    1.106704
     44          1           0       -1.087600   -3.372979    2.573247
     45          1           0       -2.267938   -4.660374    2.231549
     46          7           0       -0.478825   -4.087119   -0.331024
     47          6           0        0.417187   -4.634882   -1.344085
     48          6           0        1.371505   -3.606156   -1.952772
     49          8           0        2.550810   -3.903895   -2.104655
     50          1           0       -0.170377   -5.080709   -2.146588
     51          1           0       -1.011018   -3.275938   -0.613683
     52          1           0        1.030087   -5.419680   -0.901100
     53          7           0        0.879689   -2.415231   -2.296899
     54          6           0        1.719340   -1.371677   -2.900513
     55          6           0        2.960164   -1.144049   -2.052008
     56          8           0        2.979388   -1.516180   -0.871985
     57          6           0        0.949130   -0.049006   -3.063474
     58         16           0        0.674543    0.929147   -1.520647
     59          1           0       -0.097418   -2.211962   -2.143420
     60          1           0        2.022609   -1.681846   -3.900520
     61          1           0        1.493389    0.606961   -3.742703
     62          1           0       -0.041550   -0.252751   -3.470144
     63          7           0        3.985351   -0.518057   -2.625411
     64          6           0        5.233244   -0.285746   -1.882934
     65          6           0        5.071696    0.570084   -0.619773
     66          8           0        5.744617    0.340080    0.399510
     67          1           0        6.015941    0.114875   -2.527068
     68          1           0        3.907627   -0.198409   -3.580036
     69          1           0        5.651606   -1.241208   -1.566222
     70          7           0        4.159227    1.538584   -0.684903
     71          6           0        3.903274    2.417615    0.449296
     72          6           0        3.415469    1.625213    1.632738
     73          8           0        3.871930    1.834461    2.753998
     74          1           0        3.629359    1.672794   -1.534668
     75          1           0        4.823032    2.933200    0.724622
     76          1           0        3.143736    3.150953    0.177759
     77          7           0        2.469292    0.723480    1.382905
     78          6           0        1.931876   -0.137832    2.437417
     79          6           0        3.025258   -1.076552    2.923475
     80          8           0        3.082684   -1.381716    4.111681
     81          6           0        0.735163   -0.956120    1.924104
     82         16           0       -0.784456    0.001508    1.612039
     83          1           0        2.105828    0.623485    0.445539
     84          1           0        1.583096    0.476935    3.267248
     85          1           0        0.998740   -1.433849    0.980722
     86          1           0        0.474951   -1.719845    2.656870
     87          7           0        3.874505   -1.547166    2.006961
     88          6           0        4.969460   -2.449902    2.368388
     89          1           0        5.641773   -1.954624    3.069077
     90          1           0        5.504280   -2.790657    1.481490
     91          1           0        3.767035   -1.279442    1.039335
     92          1           0        4.562194   -3.347894    2.833940
     93         30           0       -1.332744    0.278813   -0.634376
 ---------------------------------------------------------------------
 Rotational constants (GHZ):      0.0528739      0.0508239      0.0355156
 Standard basis: 6-31G(d) (6D, 7F)
 There are   886 symmetry adapted basis functions of A   symmetry.
 Integral buffers will be    131072 words long.
 Raffenetti 2 integral format.
 Two-electron integral symmetry is turned on.
   886 basis functions,  1768 primitive gaussians,   889 cartesian basis functions
   222 alpha electrons      222 beta electrons
       nuclear repulsion energy     10357.8649591085 Hartrees.
 NAtoms=   93 NActive=   93 NUniq=   93 SFac= 1.00D+00 NAtFMM=   60 NAOKFM=T Big=T
 One-electron integrals computed using PRISM.
 NBasis=   886 RedAO= T  NBF=   886
 NBsUse=   886 1.00D-06 NBFU=   886
 Harris functional with IExCor=  402 diagonalized for initial guess.
 ExpMin= 4.93D-02 ExpMax= 8.24D+04 ExpMxC= 1.24D+04 IAcc=3 IRadAn=         5 AccDes= 0.00D+00
 HarFok:  IExCor=  402 AccDes= 0.00D+00 IRadAn=         5 IDoV= 1
 ScaDFX=  1.000000  1.000000  1.000000  1.000000
 FoFCou: FMM=F IPFlag=           0 FMFlag=      100000 FMFlg1=        2001
         NFxFlg=           0 DoJE=T BraDBF=F KetDBF=T FulRan=T
         Omega=  0.000000  0.000000  1.000000  0.000000  0.000000 ICntrl=     500 IOpCl=  0
         NMat0=    1 NMatS0=    1 NMatT0=    0 NMatD0=    1 NMtDS0=    0 NMtDT0=    0
         I1Cent=           4 NGrid=           0.
 Petite list used in FoFCou.
 Initial guess orbital symmetries:
       Occupied  (A) (A) (A) (A) (A) (A) (A) (A) (A) (A) (A) (A)
                 (A) (A) (A) (A) (A) (A) (A) (A) (A) (A) (A) (A)
                 (A) (A) (A) (A) (A) (A) (A) (A) (A) (A) (A) (A)
                 (A) (A) (A) (A) (A) (A) (A) (A) (A) (A) (A) (A)
                 (A) (A) (A) (A) (A) (A) (A) (A) (A) (A) (A) (A)
                 (A) (A) (A) (A) (A) (A) (A) (A) (A) (A) (A) (A)
                 (A) (A) (A) (A) (A) (A) (A) (A) (A) (A) (A) (A)
                 (A) (A) (A) (A) (A) (A) (A) (A) (A) (A) (A) (A)
                 (A) (A) (A) (A) (A) (A) (A) (A) (A) (A) (A) (A)
                 (A) (A) (A) (A) (A) (A) (A) (A) (A) (A) (A) (A)
                 (A) (A) (A) (A) (A) (A) (A) (A) (A) (A) (A) (A)
                 (A) (A) (A) (A) (A) (A) (A) (A) (A) (A) (A) (A)
                 (A) (A) (A) (A) (A) (A) (A) (A) (A) (A) (A) (A)
                 (A) (A) (A) (A) (A) (A) (A) (A) (A) (A) (A) (A)
                 (A) (A) (A) (A) (A) (A) (A) (A) (A) (A) (A) (A)
                 (A) (A) (A) (A) (A) (A) (A) (A) (A) (A) (A) (A)
                 (A) (A) (A) (A) (A) (A) (A) (A) (A) (A) (A) (A)
                 (A) (A) (A) (A) (A) (A) (A) (A) (A) (A) (A) (A)
                 (A) (A) (A) (A) (A) (A)
       Virtual   (A) (A) (A) (A) (A) (A) (A) (A) (A) (A) (A) (A)
                 (A) (A) (A) (A) (A) (A) (A) (A) (A) (A) (A) (A)
                 (A) (A) (A) (A) (A) (A) (A) (A) (A) (A) (A) (A)
                 (A) (A) (A) (A) (A) (A) (A) (A) (A) (A) (A) (A)
                 (A) (A) (A) (A) (A) (A) (A) (A) (A) (A) (A) (A)
                 (A) (A) (A) (A) (A) (A) (A) (A) (A) (A) (A) (A)
                 (A) (A) (A) (A) (A) (A) (A) (A) (A) (A) (A) (A)
                 (A) (A) (A) (A) (A) (A) (A) (A) (A) (A) (A) (A)
                 (A) (A) (A) (A) (A) (A) (A) (A) (A) (A) (A) (A)
                 (A) (A) (A) (A) (A) (A) (A) (A) (A) (A) (A) (A)
                 (A) (A) (A) (A) (A) (A) (A) (A) (A) (A) (A) (A)
                 (A) (A) (A) (A) (A) (A) (A) (A) (A) (A) (A) (A)
                 (A) (A) (A) (A) (A) (A) (A) (A) (A) (A) (A) (A)
                 (A) (A) (A) (A) (A) (A) (A) (A) (A) (A) (A) (A)
                 (A) (A) (A) (A) (A) (A) (A) (A) (A) (A) (A) (A)
                 (A) (A) (A) (A) (A) (A) (A) (A) (A) (A) (A) (A)
                 (A) (A) (A) (A) (A) (A) (A) (A) (A) (A) (A) (A)
                 (A) (A) (A) (A) (A) (A) (A) (A) (A) (A) (A) (A)
                 (A) (A) (A) (A) (A) (A) (A) (A) (A) (A) (A) (A)
                 (A) (A) (A) (A) (A) (A) (A) (A) (A) (A) (A) (A)
                 (A) (A) (A) (A) (A) (A) (A) (A) (A) (A) (A) (A)
                 (A) (A) (A) (A) (A) (A) (A) (A) (A) (A) (A) (A)
                 (A) (A) (A) (A) (A) (A) (A) (A) (A) (A) (A) (A)
                 (A) (A) (A) (A) (A) (A) (A) (A) (A) (A) (A) (A)
                 (A) (A) (A) (A) (A) (A) (A) (A) (A) (A) (A) (A)
                 (A) (A) (A) (A) (A) (A) (A) (A) (A) (A) (A) (A)
                 (A) (A) (A) (A) (A) (A) (A) (A) (A) (A) (A) (A)
                 (A) (A) (A) (A) (A) (A) (A) (A) (A) (A) (A) (A)
                 (A) (A) (A) (A) (A) (A) (A) (A) (A) (A) (A) (A)
                 (A) (A) (A) (A) (A) (A) (A) (A) (A) (A) (A) (A)
                 (A) (A) (A) (A) (A) (A) (A) (A) (A) (A) (A) (A)
                 (A) (A) (A) (A) (A) (A) (A) (A) (A) (A) (A) (A)
                 (A) (A) (A) (A) (A) (A) (A) (A) (A) (A) (A) (A)
                 (A) (A) (A) (A) (A) (A) (A) (A) (A) (A) (A) (A)
                 (A) (A) (A) (A) (A) (A) (A) (A) (A) (A) (A) (A)
                 (A) (A) (A) (A) (A) (A) (A) (A) (A) (A) (A) (A)
                 (A) (A) (A) (A) (A) (A) (A) (A) (A) (A) (A) (A)
                 (A) (A) (A) (A) (A) (A) (A) (A) (A) (A) (A) (A)
                 (A) (A) (A) (A) (A) (A) (A) (A) (A) (A) (A) (A)
                 (A) (A) (A) (A) (A) (A) (A) (A) (A) (A) (A) (A)
                 (A) (A) (A) (A) (A) (A) (A) (A) (A) (A) (A) (A)
                 (A) (A) (A) (A) (A) (A) (A) (A) (A) (A) (A) (A)
                 (A) (A) (A) (A) (A) (A) (A) (A) (A) (A) (A) (A)
                 (A) (A) (A) (A) (A) (A) (A) (A) (A) (A) (A) (A)
                 (A) (A) (A) (A) (A) (A) (A) (A) (A) (A) (A) (A)
                 (A) (A) (A) (A) (A) (A) (A) (A) (A) (A) (A) (A)
                 (A) (A) (A) (A) (A) (A) (A) (A) (A) (A) (A) (A)
                 (A) (A) (A) (A) (A) (A) (A) (A) (A) (A) (A) (A)
                 (A) (A) (A) (A) (A) (A) (A) (A) (A) (A) (A) (A)
                 (A) (A) (A) (A) (A) (A) (A) (A) (A) (A) (A) (A)
                 (A) (A) (A) (A) (A) (A) (A) (A) (A) (A) (A) (A)
                 (A) (A) (A) (A) (A) (A) (A) (A) (A) (A) (A) (A)
                 (A) (A) (A) (A) (A) (A) (A) (A) (A) (A) (A) (A)
                 (A) (A) (A) (A) (A) (A) (A) (A) (A) (A) (A) (A)
                 (A) (A) (A) (A) (A) (A) (A) (A) (A) (A) (A) (A)
                 (A) (A) (A) (A)
 The electronic state of the initial guess is 1-A.
 Requested convergence on RMS density matrix=1.00D-08 within  64 cycles.
 Requested convergence on MAX density matrix=1.00D-06.
 Requested convergence on             energy=1.00D-06.
 No special actions if energy rises.
 SCF Done:  E(RB3LYP) =  -5688.02557934     A.U. after   14 cycles
             Convg  =    0.5467D-08             -V/T =  2.0049
 QCSCF skips out because SCF is already converged.

 **********************************************************************

            Population analysis using the SCF density.

 **********************************************************************

 Orbital symmetries:
 BldTbl:  Degeneracy threshold= 1.00D-02
       Occupied  (A) (A) (A) (A) (A) (A) (A) (A) (A) (A) (A) (A)
                 (A) (A) (A) (A) (A) (A) (A) (A) (A) (A) (A) (A)
                 (A) (A) (A) (A) (A) (A) (A) (A) (A) (A) (A) (A)
                 (A) (A) (A) (A) (A) (A) (A) (A) (A) (A) (A) (A)
                 (A) (A) (A) (A) (A) (A) (A) (A) (A) (A) (A) (A)
                 (A) (A) (A) (A) (A) (A) (A) (A) (A) (A) (A) (A)
                 (A) (A) (A) (A) (A) (A) (A) (A) (A) (A) (A) (A)
                 (A) (A) (A) (A) (A) (A) (A) (A) (A) (A) (A) (A)
                 (A) (A) (A) (A) (A) (A) (A) (A) (A) (A) (A) (A)
                 (A) (A) (A) (A) (A) (A) (A) (A) (A) (A) (A) (A)
                 (A) (A) (A) (A) (A) (A) (A) (A) (A) (A) (A) (A)
                 (A) (A) (A) (A) (A) (A) (A) (A) (A) (A) (A) (A)
                 (A) (A) (A) (A) (A) (A) (A) (A) (A) (A) (A) (A)
                 (A) (A) (A) (A) (A) (A) (A) (A) (A) (A) (A) (A)
                 (A) (A) (A) (A) (A) (A) (A) (A) (A) (A) (A) (A)
                 (A) (A) (A) (A) (A) (A) (A) (A) (A) (A) (A) (A)
                 (A) (A) (A) (A) (A) (A) (A) (A) (A) (A) (A) (A)
                 (A) (A) (A) (A) (A) (A) (A) (A) (A) (A) (A) (A)
                 (A) (A) (A) (A) (A) (A)
       Virtual   (A) (A) (A) (A) (A) (A) (A) (A) (A) (A) (A) (A)
                 (A) (A) (A) (A) (A) (A) (A) (A) (A) (A) (A) (A)
                 (A) (A) (A) (A) (A) (A) (A) (A) (A) (A) (A) (A)
                 (A) (A) (A) (A) (A) (A) (A) (A) (A) (A) (A) (A)
                 (A) (A) (A) (A) (A) (A) (A) (A) (A) (A) (A) (A)
                 (A) (A) (A) (A) (A) (A) (A) (A) (A) (A) (A) (A)
                 (A) (A) (A) (A) (A) (A) (A) (A) (A) (A) (A) (A)
                 (A) (A) (A) (A) (A) (A) (A) (A) (A) (A) (A) (A)
                 (A) (A) (A) (A) (A) (A) (A) (A) (A) (A) (A) (A)
                 (A) (A) (A) (A) (A) (A) (A) (A) (A) (A) (A) (A)
                 (A) (A) (A) (A) (A) (A) (A) (A) (A) (A) (A) (A)
                 (A) (A) (A) (A) (A) (A) (A) (A) (A) (A) (A) (A)
                 (A) (A) (A) (A) (A) (A) (A) (A) (A) (A) (A) (A)
                 (A) (A) (A) (A) (A) (A) (A) (A) (A) (A) (A) (A)
                 (A) (A) (A) (A) (A) (A) (A) (A) (A) (A) (A) (A)
                 (A) (A) (A) (A) (A) (A) (A) (A) (A) (A) (A) (A)
                 (A) (A) (A) (A) (A) (A) (A) (A) (A) (A) (A) (A)
                 (A) (A) (A) (A) (A) (A) (A) (A) (A) (A) (A) (A)
                 (A) (A) (A) (A) (A) (A) (A) (A) (A) (A) (A) (A)
                 (A) (A) (A) (A) (A) (A) (A) (A) (A) (A) (A) (A)
                 (A) (A) (A) (A) (A) (A) (A) (A) (A) (A) (A) (A)
                 (A) (A) (A) (A) (A) (A) (A) (A) (A) (A) (A) (A)
                 (A) (A) (A) (A) (A) (A) (A) (A) (A) (A) (A) (A)
                 (A) (A) (A) (A) (A) (A) (A) (A) (A) (A) (A) (A)
                 (A) (A) (A) (A) (A) (A) (A) (A) (A) (A) (A) (A)
                 (A) (A) (A) (A) (A) (A) (A) (A) (A) (A) (A) (A)
                 (A) (A) (A) (A) (A) (A) (A) (A) (A) (A) (A) (A)
                 (A) (A) (A) (A) (A) (A) (A) (A) (A) (A) (A) (A)
                 (A) (A) (A) (A) (A) (A) (A) (A) (A) (A) (A) (A)
                 (A) (A) (A) (A) (A) (A) (A) (A) (A) (A) (A) (A)
                 (A) (A) (A) (A) (A) (A) (A) (A) (A) (A) (A) (A)
                 (A) (A) (A) (A) (A) (A) (A) (A) (A) (A) (A) (A)
                 (A) (A) (A) (A) (A) (A) (A) (A) (A) (A) (A) (A)
                 (A) (A) (A) (A) (A) (A) (A) (A) (A) (A) (A) (A)
                 (A) (A) (A) (A) (A) (A) (A) (A) (A) (A) (A) (A)
                 (A) (A) (A) (A) (A) (A) (A) (A) (A) (A) (A) (A)
                 (A) (A) (A) (A) (A) (A) (A) (A) (A) (A) (A) (A)
                 (A) (A) (A) (A) (A) (A) (A) (A) (A) (A) (A) (A)
                 (A) (A) (A) (A) (A) (A) (A) (A) (A) (A) (A) (A)
                 (A) (A) (A) (A) (A) (A) (A) (A) (A) (A) (A) (A)
                 (A) (A) (A) (A) (A) (A) (A) (A) (A) (A) (A) (A)
                 (A) (A) (A) (A) (A) (A) (A) (A) (A) (A) (A) (A)
                 (A) (A) (A) (A) (A) (A) (A) (A) (A) (A) (A) (A)
                 (A) (A) (A) (A) (A) (A) (A) (A) (A) (A) (A) (A)
                 (A) (A) (A) (A) (A) (A) (A) (A) (A) (A) (A) (A)
                 (A) (A) (A) (A) (A) (A) (A) (A) (A) (A) (A) (A)
                 (A) (A) (A) (A) (A) (A) (A) (A) (A) (A) (A) (A)
                 (A) (A) (A) (A) (A) (A) (A) (A) (A) (A) (A) (A)
                 (A) (A) (A) (A) (A) (A) (A) (A) (A) (A) (A) (A)
                 (A) (A) (A) (A) (A) (A) (A) (A) (A) (A) (A) (A)
                 (A) (A) (A) (A) (A) (A) (A) (A) (A) (A) (A) (A)
                 (A) (A) (A) (A) (A) (A) (A) (A) (A) (A) (A) (A)
                 (A) (A) (A) (A) (A) (A) (A) (A) (A) (A) (A) (A)
                 (A) (A) (A) (A) (A) (A) (A) (A) (A) (A) (A) (A)
                 (A) (A) (A) (A) (A) (A) (A) (A) (A) (A) (A) (A)
                 (A) (A) (A) (A)
 The electronic state is 1-A.
 Alpha  occ. eigenvalues -- -347.03549 -88.64729 -88.63931 -88.62452 -88.61418
 Alpha  occ. eigenvalues --  -42.00367 -36.98804 -36.98767 -36.98682 -18.96274
 Alpha  occ. eigenvalues --  -18.95805 -18.94590 -18.93893 -18.93053 -18.92442
 Alpha  occ. eigenvalues --  -18.92093 -18.91759 -18.91529 -18.90477 -14.23625
 Alpha  occ. eigenvalues --  -14.21058 -14.20767 -14.18859 -14.17974 -14.17763
 Alpha  occ. eigenvalues --  -14.16658 -14.16265 -14.15761 -14.15624 -10.13889
 Alpha  occ. eigenvalues --  -10.13644 -10.13009 -10.11400 -10.10119 -10.10069
 Alpha  occ. eigenvalues --  -10.10014 -10.09677 -10.09455 -10.09114 -10.08642
 Alpha  occ. eigenvalues --  -10.07718 -10.05951 -10.05890 -10.05674 -10.05489
 Alpha  occ. eigenvalues --  -10.05390 -10.05363 -10.05098 -10.04561 -10.03914
 Alpha  occ. eigenvalues --  -10.03720 -10.03117 -10.02790 -10.01090 -10.00901
 Alpha  occ. eigenvalues --   -7.70980  -7.70341  -7.68772  -7.67673  -5.67537
 Alpha  occ. eigenvalues --   -5.66883  -5.66866  -5.66647  -5.66218  -5.66045
 Alpha  occ. eigenvalues --   -5.65334  -5.64634  -5.64451  -5.64200  -5.63552
 Alpha  occ. eigenvalues --   -5.63391  -4.58213  -2.97418  -2.97364  -2.97152
 Alpha  occ. eigenvalues --   -0.89150  -0.87490  -0.87027  -0.86265  -0.85224
 Alpha  occ. eigenvalues --   -0.85221  -0.84637  -0.84103  -0.83812  -0.82709
 Alpha  occ. eigenvalues --   -0.79227  -0.77072  -0.76754  -0.76092  -0.74732
 Alpha  occ. eigenvalues --   -0.74601  -0.73648  -0.73349  -0.72325  -0.71414
 Alpha  occ. eigenvalues --   -0.63970  -0.62507  -0.61306  -0.60836  -0.58950
 Alpha  occ. eigenvalues --   -0.58587  -0.57566  -0.55660  -0.55368  -0.55190
 Alpha  occ. eigenvalues --   -0.54035  -0.52896  -0.51913  -0.50191  -0.49714
 Alpha  occ. eigenvalues --   -0.48207  -0.46645  -0.44303  -0.44254  -0.43688
 Alpha  occ. eigenvalues --   -0.42754  -0.42035  -0.41382  -0.41195  -0.40752
 Alpha  occ. eigenvalues --   -0.40049  -0.39840  -0.39366  -0.38802  -0.38561
 Alpha  occ. eigenvalues --   -0.38135  -0.37176  -0.36817  -0.36020  -0.34663
 Alpha  occ. eigenvalues --   -0.34385  -0.33494  -0.32974  -0.32223  -0.32119
 Alpha  occ. eigenvalues --   -0.31749  -0.31323  -0.31283  -0.30405  -0.29943
 Alpha  occ. eigenvalues --   -0.29565  -0.29456  -0.29094  -0.28803  -0.28680
 Alpha  occ. eigenvalues --   -0.27956  -0.27351  -0.27027  -0.26799  -0.26588
 Alpha  occ. eigenvalues --   -0.26564  -0.26493  -0.26094  -0.26011  -0.25522
 Alpha  occ. eigenvalues --   -0.25284  -0.24887  -0.24834  -0.24617  -0.24469
 Alpha  occ. eigenvalues --   -0.24177  -0.24004  -0.23904  -0.23660  -0.23627
 Alpha  occ. eigenvalues --   -0.23402  -0.23329  -0.23102  -0.23011  -0.22817
 Alpha  occ. eigenvalues --   -0.22560  -0.22274  -0.21684  -0.21566  -0.21368
 Alpha  occ. eigenvalues --   -0.21124  -0.20983  -0.20448  -0.20254  -0.20110
 Alpha  occ. eigenvalues --   -0.19961  -0.19754  -0.19106  -0.18796  -0.18629
 Alpha  occ. eigenvalues --   -0.18393  -0.18039  -0.17933  -0.17440  -0.16837
 Alpha  occ. eigenvalues --   -0.15453  -0.15067  -0.14461  -0.13100  -0.12960
 Alpha  occ. eigenvalues --   -0.11026  -0.10690  -0.10393  -0.09805  -0.09414
 Alpha  occ. eigenvalues --   -0.09158  -0.08976  -0.08789  -0.08477  -0.08151
 Alpha  occ. eigenvalues --   -0.07674  -0.07185  -0.07005  -0.06167  -0.06116
 Alpha  occ. eigenvalues --   -0.05656  -0.05527  -0.05505  -0.05281  -0.04844
 Alpha  occ. eigenvalues --   -0.04638  -0.03729  -0.03062  -0.02905  -0.01386
 Alpha  occ. eigenvalues --   -0.00743   0.00058
 Alpha virt. eigenvalues --    0.16573   0.17064   0.18229   0.18506   0.19743
 Alpha virt. eigenvalues --    0.20115   0.20851   0.21202   0.21371   0.21598
 Alpha virt. eigenvalues --    0.21905   0.22034   0.22316   0.22876   0.24065
 Alpha virt. eigenvalues --    0.24608   0.25176   0.25542   0.26342   0.26529
 Alpha virt. eigenvalues --    0.26644   0.26874   0.27295   0.27846   0.28588
 Alpha virt. eigenvalues --    0.29052   0.29570   0.29717   0.29972   0.30184
 Alpha virt. eigenvalues --    0.30291   0.30635   0.30856   0.30999   0.31343
 Alpha virt. eigenvalues --    0.31608   0.31939   0.32068   0.32255   0.32676
 Alpha virt. eigenvalues --    0.32905   0.33047   0.33274   0.33456   0.33551
 Alpha virt. eigenvalues --    0.33779   0.33901   0.33983   0.34382   0.34510
 Alpha virt. eigenvalues --    0.35050   0.35265   0.35505   0.35874   0.36040
 Alpha virt. eigenvalues --    0.36516   0.36840   0.36985   0.37095   0.37466
 Alpha virt. eigenvalues --    0.38215   0.38519   0.38799   0.39113   0.39660
 Alpha virt. eigenvalues --    0.39904   0.40411   0.40559   0.41147   0.41381
 Alpha virt. eigenvalues --    0.42102   0.42403   0.42933   0.43084   0.43722
 Alpha virt. eigenvalues --    0.44046   0.44151   0.44943   0.45345   0.45435
 Alpha virt. eigenvalues --    0.46307   0.46515   0.46696   0.47646   0.48260
 Alpha virt. eigenvalues --    0.49208   0.49575   0.50447   0.50585   0.50789
 Alpha virt. eigenvalues --    0.51607   0.52072   0.52561   0.53147   0.53391
 Alpha virt. eigenvalues --    0.53639   0.54264   0.55736   0.56556   0.57579
 Alpha virt. eigenvalues --    0.57808   0.58623   0.58842   0.59386   0.59710
 Alpha virt. eigenvalues --    0.60554   0.60663   0.61336   0.61665   0.61762
 Alpha virt. eigenvalues --    0.63006   0.63342   0.63779   0.64140   0.65594
 Alpha virt. eigenvalues --    0.66078   0.66583   0.67038   0.67441   0.67727
 Alpha virt. eigenvalues --    0.68015   0.68527   0.69491   0.69575   0.69646
 Alpha virt. eigenvalues --    0.69783   0.70225   0.70475   0.70786   0.70993
 Alpha virt. eigenvalues --    0.71473   0.71817   0.72144   0.72272   0.72756
 Alpha virt. eigenvalues --    0.72822   0.73010   0.73233   0.73641   0.74082
 Alpha virt. eigenvalues --    0.74669   0.74902   0.75046   0.75435   0.75678
 Alpha virt. eigenvalues --    0.76047   0.76624   0.76822   0.77075   0.77267
 Alpha virt. eigenvalues --    0.77601   0.78046   0.78880   0.79184   0.79488
 Alpha virt. eigenvalues --    0.79536   0.79981   0.80445   0.80978   0.81402
 Alpha virt. eigenvalues --    0.81755   0.82182   0.82375   0.82911   0.83121
 Alpha virt. eigenvalues --    0.83336   0.83595   0.83726   0.84156   0.84670
 Alpha virt. eigenvalues --    0.84884   0.85401   0.85633   0.85929   0.86253
 Alpha virt. eigenvalues --    0.86541   0.87093   0.87364   0.87677   0.87965
 Alpha virt. eigenvalues --    0.88099   0.88691   0.88922   0.89611   0.89829
 Alpha virt. eigenvalues --    0.90511   0.91274   0.91679   0.91887   0.92045
 Alpha virt. eigenvalues --    0.92185   0.93141   0.93284   0.94091   0.94274
 Alpha virt. eigenvalues --    0.94691   0.94880   0.95168   0.95608   0.95907
 Alpha virt. eigenvalues --    0.96112   0.96443   0.96634   0.97417   0.97855
 Alpha virt. eigenvalues --    0.98129   0.98592   0.98947   0.99305   0.99447
 Alpha virt. eigenvalues --    0.99655   0.99903   1.00278   1.00506   1.00839
 Alpha virt. eigenvalues --    1.01098   1.01410   1.01681   1.01804   1.02516
 Alpha virt. eigenvalues --    1.02699   1.02760   1.03314   1.03540   1.03617
 Alpha virt. eigenvalues --    1.03809   1.04275   1.04388   1.04608   1.04918
 Alpha virt. eigenvalues --    1.05083   1.05253   1.05553   1.05736   1.05968
 Alpha virt. eigenvalues --    1.06284   1.06563   1.06757   1.06992   1.07167
 Alpha virt. eigenvalues --    1.07218   1.07631   1.08092   1.08303   1.08609
 Alpha virt. eigenvalues --    1.08876   1.09078   1.09431   1.09602   1.09752
 Alpha virt. eigenvalues --    1.09999   1.10325   1.10565   1.11029   1.11235
 Alpha virt. eigenvalues --    1.11373   1.11780   1.12051   1.12516   1.13404
 Alpha virt. eigenvalues --    1.13680   1.13824   1.14318   1.14601   1.15487
 Alpha virt. eigenvalues --    1.15698   1.16318   1.16598   1.16809   1.16869
 Alpha virt. eigenvalues --    1.17263   1.17976   1.18417   1.18460   1.19203
 Alpha virt. eigenvalues --    1.20031   1.20507   1.20767   1.21034   1.21545
 Alpha virt. eigenvalues --    1.21767   1.22341   1.22595   1.22964   1.23071
 Alpha virt. eigenvalues --    1.23854   1.24353   1.24430   1.25087   1.25569
 Alpha virt. eigenvalues --    1.25804   1.25938   1.26509   1.27080   1.27469
 Alpha virt. eigenvalues --    1.27851   1.28224   1.28898   1.29194   1.29280
 Alpha virt. eigenvalues --    1.29618   1.29861   1.30821   1.31422   1.31535
 Alpha virt. eigenvalues --    1.32038   1.32071   1.33039   1.33680   1.34199
 Alpha virt. eigenvalues --    1.35476   1.35637   1.36547   1.37760   1.37915
 Alpha virt. eigenvalues --    1.39207   1.39419   1.39684   1.40184   1.41247
 Alpha virt. eigenvalues --    1.41700   1.42790   1.43461   1.43825   1.44883
 Alpha virt. eigenvalues --    1.45427   1.46159   1.46629   1.47269   1.48022
 Alpha virt. eigenvalues --    1.48257   1.49181   1.49542   1.50254   1.50753
 Alpha virt. eigenvalues --    1.51589   1.51893   1.52872   1.53320   1.53947
 Alpha virt. eigenvalues --    1.55263   1.55586   1.56263   1.56989   1.57207
 Alpha virt. eigenvalues --    1.57658   1.58570   1.59196   1.60053   1.60635
 Alpha virt. eigenvalues --    1.60931   1.61107   1.61849   1.63419   1.63644
 Alpha virt. eigenvalues --    1.63942   1.64526   1.64721   1.65248   1.66873
 Alpha virt. eigenvalues --    1.67844   1.68019   1.68634   1.69453   1.70648
 Alpha virt. eigenvalues --    1.70710   1.71455   1.71499   1.71961   1.72812
 Alpha virt. eigenvalues --    1.74593   1.75534   1.75876   1.77464   1.78291
 Alpha virt. eigenvalues --    1.79420   1.79785   1.80114   1.81135   1.82259
 Alpha virt. eigenvalues --    1.83363   1.83992   1.84497   1.84542   1.85367
 Alpha virt. eigenvalues --    1.86690   1.86741   1.88004   1.88494   1.88936
 Alpha virt. eigenvalues --    1.89002   1.90080   1.90331   1.91099   1.91710
 Alpha virt. eigenvalues --    1.91962   1.93110   1.93768   1.94245   1.95601
 Alpha virt. eigenvalues --    1.95924   1.96855   1.97582   1.98269   1.98496
 Alpha virt. eigenvalues --    1.98742   1.98910   1.99108   1.99712   2.00046
 Alpha virt. eigenvalues --    2.00336   2.00535   2.00842   2.01191   2.01743
 Alpha virt. eigenvalues --    2.01884   2.02325   2.02760   2.03122   2.03640
 Alpha virt. eigenvalues --    2.03896   2.04211   2.04578   2.05239   2.05533
 Alpha virt. eigenvalues --    2.05777   2.06623   2.06990   2.07152   2.07209
 Alpha virt. eigenvalues --    2.08256   2.08980   2.09217   2.09318   2.09600
 Alpha virt. eigenvalues --    2.09828   2.10764   2.10935   2.11260   2.11473
 Alpha virt. eigenvalues --    2.12014   2.12327   2.13424   2.14544   2.14603
 Alpha virt. eigenvalues --    2.14807   2.15660   2.15777   2.16251   2.16570
 Alpha virt. eigenvalues --    2.16977   2.18076   2.18271   2.18616   2.18741
 Alpha virt. eigenvalues --    2.19169   2.19487   2.19794   2.20375   2.21055
 Alpha virt. eigenvalues --    2.21125   2.22093   2.22188   2.22403   2.22819
 Alpha virt. eigenvalues --    2.23727   2.24436   2.25112   2.25652   2.25842
 Alpha virt. eigenvalues --    2.25977   2.26449   2.27444   2.27811   2.28307
 Alpha virt. eigenvalues --    2.28517   2.29503   2.30117   2.31027   2.31101
 Alpha virt. eigenvalues --    2.31273   2.31417   2.32191   2.33333   2.33516
 Alpha virt. eigenvalues --    2.33945   2.35001   2.35396   2.35819   2.36662
 Alpha virt. eigenvalues --    2.37187   2.37557   2.38136   2.38516   2.39014
 Alpha virt. eigenvalues --    2.39460   2.39591   2.40272   2.42719   2.42896
 Alpha virt. eigenvalues --    2.43335   2.43764   2.44540   2.45459   2.46412
 Alpha virt. eigenvalues --    2.46965   2.47329   2.48063   2.48736   2.49378
 Alpha virt. eigenvalues --    2.50458   2.50543   2.51243   2.51929   2.52659
 Alpha virt. eigenvalues --    2.53393   2.53727   2.54050   2.54259   2.54380
 Alpha virt. eigenvalues --    2.55406   2.55952   2.56512   2.56689   2.57859
 Alpha virt. eigenvalues --    2.58125   2.58417   2.58715   2.58889   2.59203
 Alpha virt. eigenvalues --    2.59744   2.60314   2.60481   2.60645   2.61316
 Alpha virt. eigenvalues --    2.61405   2.61661   2.62592   2.62843   2.63178
 Alpha virt. eigenvalues --    2.64048   2.64440   2.65798   2.66503   2.68497
 Alpha virt. eigenvalues --    2.69979   2.70164   2.70700   2.72396   2.72856
 Alpha virt. eigenvalues --    2.73212   2.73733   2.74862   2.76570   2.76989
 Alpha virt. eigenvalues --    2.77903   2.78385   2.79246   2.80355   2.82448
 Alpha virt. eigenvalues --    2.82594   2.83010   2.83370   2.84469   2.84932
 Alpha virt. eigenvalues --    2.85491   2.86118   2.86179   2.87114   2.87743
 Alpha virt. eigenvalues --    2.88637   2.88959   2.89446   2.89507   2.91164
 Alpha virt. eigenvalues --    2.91540   2.93833   2.94642   2.95583   2.95999
 Alpha virt. eigenvalues --    2.97897   2.98615   2.99315   3.02828   3.02880
 Alpha virt. eigenvalues --    3.06763   3.07048   3.08697   3.09473   3.09779
 Alpha virt. eigenvalues --    3.11484   3.13523   3.13734   3.15065   3.15466
 Alpha virt. eigenvalues --    3.16471   3.17192   3.18370   3.18627   3.20328
 Alpha virt. eigenvalues --    3.21064   3.23191   3.24260   3.32274   3.33094
 Alpha virt. eigenvalues --    3.33337   3.35326   3.35669   3.36669   3.37383
 Alpha virt. eigenvalues --    3.37981   3.41198   3.41979   4.12813   4.13322
 Alpha virt. eigenvalues --    4.14544   4.15236   4.16915   4.18253   4.19217
 Alpha virt. eigenvalues --    4.19474   4.20154   4.20512   4.22519   4.24156
 Alpha virt. eigenvalues --    4.25225   4.26372   4.28879   4.30283   4.31258
 Alpha virt. eigenvalues --    4.32523   4.32889   4.33121   4.34808   4.37390
 Alpha virt. eigenvalues --    4.37799   4.39406   4.39746   4.44320   4.46183
 Alpha virt. eigenvalues --    4.47699   4.48402   4.49329   4.49905   4.50433
 Alpha virt. eigenvalues --    4.52192   4.53649   4.54785   4.58366   4.61518
 Alpha virt. eigenvalues --    4.63059   4.64629   4.65655   4.66901   4.68482
 Alpha virt. eigenvalues --    4.70762   4.75040   4.78445   4.79571   4.85075
 Alpha virt. eigenvalues --    4.89032   4.90053   4.92556  47.56812
          Condensed to atoms (all electrons):
 Mulliken atomic charges:
              1
     1  H    0.121071
     2  C   -0.530749
     3  C    0.611628
     4  O   -0.536353
     5  H    0.178600
     6  H    0.161760
     7  N   -0.572474
     8  C   -0.074641
     9  C    0.637342
    10  O   -0.592157
    11  C   -0.419510
    12  S   -0.379534
    13  H    0.313257
    14  H    0.237610
    15  H    0.166382
    16  H    0.142685
    17  N   -0.558748
    18  C   -0.283667
    19  H    0.158672
    20  H    0.126331
    21  H    0.380365
    22  H    0.149513
    23  H    0.135863
    24  C   -0.536145
    25  C    0.572728
    26  O   -0.549993
    27  H    0.175267
    28  H    0.177457
    29  N   -0.603104
    30  C   -0.021015
    31  C    0.622475
    32  O   -0.577259
    33  C   -0.409916
    34  S   -0.456693
    35  H    0.363611
    36  H    0.155055
    37  H    0.162828
    38  H    0.168841
    39  N   -0.623403
    40  C   -0.219536
    41  C    0.602927
    42  O   -0.556661
    43  H    0.405431
    44  H    0.186941
    45  H    0.181034
    46  N   -0.611209
    47  C   -0.220624
    48  C    0.613159
    49  O   -0.551959
    50  H    0.146538
    51  H    0.387928
    52  H    0.194525
    53  N   -0.610580
    54  C   -0.014858
    55  C    0.690243
    56  O   -0.518038
    57  C   -0.452836
    58  S   -0.423801
    59  H    0.366850
    60  H    0.126125
    61  H    0.123470
    62  H    0.217143
    63  N   -0.615028
    64  C   -0.230614
    65  C    0.610324
    66  O   -0.539048
    67  H    0.144542
    68  H    0.316998
    69  H    0.197477
    70  N   -0.570918
    71  C   -0.237168
    72  C    0.629089
    73  O   -0.555860
    74  H    0.334271
    75  H    0.160609
    76  H    0.200644
    77  N   -0.626722
    78  C    0.002961
    79  C    0.603087
    80  O   -0.578443
    81  C   -0.469697
    82  S   -0.377360
    83  H    0.399196
    84  H    0.170713
    85  H    0.205384
    86  H    0.168345
    87  N   -0.596636
    88  C   -0.274978
    89  H    0.152667
    90  H    0.133259
    91  H    0.397750
    92  H    0.148517
    93  Zn   0.440448
 Sum of Mulliken atomic charges =  -2.00000
 Mulliken charges with hydrogens summed into heavy atoms:
              1
     2  C   -0.069318
     3  C    0.611628
     4  O   -0.536353
     7  N   -0.259217
     8  C    0.162968
     9  C    0.637342
    10  O   -0.592157
    11  C   -0.110442
    12  S   -0.379534
    17  N   -0.178382
    18  C    0.150849
    24  C   -0.047559
    25  C    0.572728
    26  O   -0.549993
    29  N   -0.239493
    30  C    0.134039
    31  C    0.622475
    32  O   -0.577259
    33  C   -0.078247
    34  S   -0.456693
    39  N   -0.217972
    40  C    0.148439
    41  C    0.602927
    42  O   -0.556661
    46  N   -0.223281
    47  C    0.120438
    48  C    0.613159
    49  O   -0.551959
    53  N   -0.243730
    54  C    0.111267
    55  C    0.690243
    56  O   -0.518038
    57  C   -0.112223
    58  S   -0.423801
    63  N   -0.298030
    64  C    0.111405
    65  C    0.610324
    66  O   -0.539048
    70  N   -0.236647
    71  C    0.124084
    72  C    0.629089
    73  O   -0.555860
    77  N   -0.227526
    78  C    0.173673
    79  C    0.603087
    80  O   -0.578443
    81  C   -0.095968
    82  S   -0.377360
    87  N   -0.198886
    88  C    0.159465
    93  Zn   0.440448
 Sum of Mulliken charges with hydrogens summed into heavy atoms =  -2.00000
 DipInt: DoE/N= T F RetVal/Mat= T F Init=T NMatP=  1 IDeriv=0 Min/MaxMlt=  0  4
 Entering OneElI...
 OneElI was handed   784433185 working-precision words.
 Multipole integrals L=0 to 4 MinM= 0 MaxM= 0.
 Requested accuracy = 0.1000D-12
 PrsmSu:  NPrtUS=   1 ThrOK=F IAlg=1 NPAlg=1 LenDen=           0.
 Prism:   IPart=     0 DynPar=F LinDyn=F Incr=         269.
 PRISM was handed   782034497 working-precision words and 26966 shell-pairs
 IPart=  0 NShTot=       26966 NBatch=         322 AvBLen=        83.7
 PrSmSu:  NxtVal=            270.
 Electronic moments (au):
       -444.00000000          2.06959759          3.20079420         -4.57178043
     -14183.77769520     -13550.08825954      -5393.95647896         -7.06359045
        -34.34746088         19.01050843      -6340.86664630     -25864.44933390
      -1095.42878292      14570.47826668      11483.61742245     -10896.42675196
      -8443.58914657       -290.94480603      -3566.82361868      -3649.63832910
   -1001682.34913913   -1094293.22409875    -147393.68716036     -68960.67844642
      49535.17487181      46241.87084962     -38198.17450074     -19734.33055644
      14435.74199004    -224155.01769466    -165134.23054392    -152901.23426682
      18336.74927513      -7115.71872920      23608.07759849
 Electronic spatial extent (au):  <R**2>=          33127.8224
 DipInt: DoE/N= F T RetVal/Mat= T F Init=T NMatP=  1 IDeriv=0 Min/MaxMlt=  0  4
 Nuclear    moments (au):
        442.00000000          0.00000000          0.00000000          0.00000000
      13833.86705491      13206.75816464       5107.35968404          0.00000000
          0.00000000          0.00000000       6591.31718005      26204.79876357
        808.38499641     -14396.06573672     -11282.39246730      10534.38021183
       8392.77336992        361.52419900       3616.99278998       3434.69096734
     944151.85960883    1039273.29011253     127138.78337110      66605.01889597
     -50166.42490606     -46196.31706597      40705.70368041      17961.15903414
     -14226.26761012     205271.75858810     152396.62354319     141344.38875037
     -17703.51277459       6585.30921617     -23365.96883127
 Total      moments (au):
         -2.00000000          2.06959759          3.20079420         -4.57178043
       -349.91064028       -343.33009490       -286.59679492         -7.06359045
        -34.34746088         19.01050843        250.45053374        340.34942967
       -287.04378651        174.41252996        201.22495515       -362.04654013
        -50.81577664         70.57939298         50.16917130       -214.94736176
     -57530.48953030     -55019.93398622     -20254.90378927      -2355.65955045
       -631.25003425         45.55378365       2507.52917966      -1773.17152230
        209.47437992     -18883.25910656     -12737.60700073     -11556.84551645
        633.23650054       -530.40951302        242.10876723
 Traceless Quadrup. (au):
        -23.29813025        -16.71758486         40.01571511         -7.06359045
        -34.34746088         19.01050843
 Charge=             -2.0000 electrons
 Dipole moment (field-independent basis, Debye):
    X=              5.2604    Y=              8.1356    Z=            -11.6203  Tot=             15.1292
 Quadrupole moment (field-independent basis, Debye-Ang):
   XX=           -470.6418   YY=           -461.7907   ZZ=           -385.4825
   XY=             -9.5008   XZ=            -46.1985   YZ=             25.5698
 Traceless Quadrupole moment (field-independent basis, Debye-Ang):
   XX=            -31.3368   YY=            -22.4857   ZZ=             53.8225
   XY=             -9.5008   XZ=            -46.1985   YZ=             25.5698
 Octapole moment (field-independent basis, Debye-Ang**2):
  XXX=            178.2610  YYY=            242.2476  ZZZ=           -204.3067  XYY=            124.1401
  XXY=            143.2242  XXZ=           -257.6908  XZZ=            -36.1687  YZZ=             50.2357
  YYZ=             35.7085  XYZ=           -152.9912
 Hexadecapole moment (field-independent basis, Debye-Ang**3):
 XXXX=         -21668.7396 YYYY=         -20723.1441 ZZZZ=          -7628.9675 XXXY=           -887.2543
 XXXZ=           -237.7590 YYYX=             17.1577 YYYZ=            944.4557 ZZZX=           -667.8614
 ZZZY=             78.8981 XXYY=          -7112.3404 XXZZ=          -4797.5933 YYZZ=          -4352.8619
 XXYZ=            238.5072 YYXZ=           -199.7776 ZZXY=             91.1898
 N-N= 1.035786495911D+04 E-N=-3.425162937186D+04  KE= 5.660262308321D+03
 Entering OneElI...
 OneElI was handed   782854657 working-precision words.
 Calculate electrostatic properties
    NBasis =   886  MinDer = 0  MaxDer = 0
    NGrid  =    93  NMatD  =   1
 Requested accuracy = 0.1000D-12
 PrsmSu:  NPrtUS=  12 ThrOK=T IAlg=1 NPAlg=1 LenDen=           0.
 Prism:   IPart=     0 DynPar=F LinDyn=F Incr=         512.
 PRISM was handed    64583915 working-precision words and 20320 shell-pairs
 PRISM was handed    64583915 working-precision words and 20320 shell-pairs
 PRISM was handed    64583915 working-precision words and 20320 shell-pairs
 PRISM was handed    64583915 working-precision words and 20320 shell-pairs
 PRISM was handed    64583915 working-precision words and 20320 shell-pairs
 PRISM was handed    64583915 working-precision words and 20320 shell-pairs
 PRISM was handed    64583915 working-precision words and 20320 shell-pairs
 PRISM was handed    64583915 working-precision words and 20320 shell-pairs
 PRISM was handed    64583915 working-precision words and 20320 shell-pairs
 PRISM was handed    64583915 working-precision words and 20320 shell-pairs
 PRISM was handed    64583915 working-precision words and 20320 shell-pairs
 PRISM was handed    64583915 working-precision words and 20320 shell-pairs
 IPart= 10 NShTot=      154473 NBatch=        1959 AvBLen=        78.9
 IPart=  8 NShTot=      155775 NBatch=        1980 AvBLen=        78.7
 IPart=  4 NShTot=      158472 NBatch=        2024 AvBLen=        78.3
 IPart=  3 NShTot=      159123 NBatch=        2035 AvBLen=        78.2
 IPart=  5 NShTot=      157914 NBatch=        2014 AvBLen=        78.4
 IPart= 11 NShTot=      154380 NBatch=        1954 AvBLen=        79.0
 IPart=  0 NShTot=      161262 NBatch=        2079 AvBLen=        77.6
 IPart=  1 NShTot=      160146 NBatch=        2051 AvBLen=        78.1
 IPart=  9 NShTot=      155124 NBatch=        1970 AvBLen=        78.7
 IPart=  6 NShTot=      157077 NBatch=        2001 AvBLen=        78.5
 IPart=  7 NShTot=      156333 NBatch=        1987 AvBLen=        78.7
 IPart=  2 NShTot=      159681 NBatch=        2043 AvBLen=        78.2
 PrSmSu:  NxtVal=           6145.
 --------------------------------------------------------
       Center         ----      EFG at Nuclei      ----
                      3XX-RR        3YY-RR        3ZZ-RR
 --------------------------------------------------------
     1   Atom       -0.209530      0.104340      0.105190
     2   Atom        0.004555     -0.006201      0.001646
     3   Atom        0.133428      0.010228     -0.143656
     4   Atom       -0.111165      0.162575     -0.051410
     5   Atom       -0.006344      0.129331     -0.122987
     6   Atom        0.063210     -0.097461      0.034251
     7   Atom       -0.427813      0.101008      0.326804
     8   Atom        0.185258     -0.100379     -0.084879
     9   Atom       -0.091512     -0.070279      0.161791
    10   Atom       -0.271620     -0.734840      1.006460
    11   Atom        0.010550     -0.049435      0.038886
    12   Atom        0.990504     -1.269689      0.279185
    13   Atom       -0.174561      0.065150      0.109411
    14   Atom       -0.070348     -0.049807      0.120155
    15   Atom        0.143541      0.108171     -0.251712
    16   Atom       -0.111817     -0.020307      0.132124
    17   Atom        0.152863      0.248952     -0.401815
    18   Atom        0.086779      0.094444     -0.181223
    19   Atom       -0.066130      0.098245     -0.032114
    20   Atom       -0.214557      0.120753      0.093804
    21   Atom       -0.002595     -0.081327      0.083922
    22   Atom        0.155277     -0.294023      0.138746
    23   Atom       -0.251502      0.149582      0.101921
    24   Atom        0.023914     -0.023806     -0.000108
    25   Atom       -0.152657      0.177776     -0.025120
    26   Atom       -0.444159     -0.060349      0.504508
    27   Atom       -0.002031      0.145844     -0.143813
    28   Atom        0.135987     -0.133408     -0.002579
    29   Atom        0.337331     -0.302068     -0.035264
    30   Atom        0.151029     -0.156102      0.005072
    31   Atom       -0.022337      0.219616     -0.197279
    32   Atom        0.763849     -0.736870     -0.026979
    33   Atom       -0.133070      0.093950      0.039120
    34   Atom       -1.791101      0.626513      1.164588
    35   Atom        0.025530     -0.130075      0.104545
    36   Atom       -0.235626      0.092060      0.143565
    37   Atom        0.145013     -0.196290      0.051276
    38   Atom       -0.017525     -0.027094      0.044620
    39   Atom       -0.107377     -0.272102      0.379479
    40   Atom       -0.008267     -0.010459      0.018725
    41   Atom       -0.034479     -0.019264      0.053743
    42   Atom       -0.174719     -0.699032      0.873751
    43   Atom        0.132727     -0.321946      0.189219
    44   Atom        0.031694      0.048451     -0.080145
    45   Atom        0.004275     -0.077523      0.073248
    46   Atom        0.267599      0.084365     -0.351964
    47   Atom        0.010909      0.051487     -0.062397
    48   Atom        0.189889      0.065144     -0.255033
    49   Atom       -0.816884      1.106042     -0.289159
    50   Atom        0.018244      0.077244     -0.095488
    51   Atom        0.041483     -0.150492      0.109009
    52   Atom        0.004932     -0.081313      0.076381
    53   Atom       -0.269505     -0.357700      0.627205
    54   Atom       -0.011494     -0.041385      0.052879
    55   Atom        0.099329     -0.268818      0.169489
    56   Atom        1.157823     -0.263583     -0.894240
    57   Atom        0.099773     -0.048139     -0.051634
    58   Atom        0.852737      0.298374     -1.151111
    59   Atom       -0.313750      0.122612      0.191138
    60   Atom        0.109776      0.111465     -0.221241
    61   Atom        0.033611     -0.010897     -0.022714
    62   Atom       -0.202846      0.124601      0.078245
    63   Atom       -0.307356      0.644320     -0.336964
    64   Atom       -0.185774      0.154653      0.031121
    65   Atom       -0.091445     -0.060482      0.151927
    66   Atom       -0.256030      0.650730     -0.394700
    67   Atom       -0.076085      0.091895     -0.015809
    68   Atom        0.165730      0.158908     -0.324638
    69   Atom        0.078109     -0.188352      0.110243
    70   Atom        0.226295      0.075591     -0.301886
    71   Atom        0.141631     -0.026421     -0.115211
    72   Atom       -0.100958     -0.098980      0.199938
    73   Atom        0.161486      0.352890     -0.514376
    74   Atom        0.046790      0.171989     -0.218779
    75   Atom       -0.163836      0.047649      0.116187
    76   Atom       -0.054500     -0.050539      0.105038
    77   Atom        0.173106      0.122595     -0.295701
    78   Atom        0.054072     -0.026526     -0.027546
    79   Atom       -0.027238     -0.122466      0.149704
    80   Atom        0.655046      0.173110     -0.828156
    81   Atom       -0.120885      0.000788      0.120097
    82   Atom       -1.188158      0.544275      0.643883
    83   Atom        0.115288      0.170119     -0.285406
    84   Atom        0.105291      0.004821     -0.110111
    85   Atom        0.114068      0.059234     -0.173303
    86   Atom        0.117064     -0.068448     -0.048617
    87   Atom       -0.062672      0.335080     -0.272408
    88   Atom       -0.083341     -0.018119      0.101460
    89   Atom       -0.028925      0.057755     -0.028830
    90   Atom        0.037620      0.108721     -0.146341
    91   Atom        0.165270      0.152569     -0.317839
    92   Atom        0.083192     -0.154549      0.071357
    93   Atom        0.085506     -0.193926      0.108419
 --------------------------------------------------------
                        XY            XZ            YZ
 --------------------------------------------------------
     1   Atom        0.123007      0.126926     -0.051066
     2   Atom        0.002761      0.014688     -0.027250
     3   Atom       -0.034559     -0.020235      0.254620
     4   Atom        0.992058      0.674046      0.619932
     5   Atom        0.055208     -0.206735      0.072271
     6   Atom       -0.149339      0.101867      0.167901
     7   Atom       -0.004728      0.069418     -0.634817
     8   Atom       -0.083199     -0.024724     -0.205634
     9   Atom       -0.222495     -0.086919     -0.168592
    10   Atom        0.169305     -0.841611      0.137593
    11   Atom       -0.049579      0.028533     -0.095851
    12   Atom        0.158819     -0.258995     -1.835832
    13   Atom        0.199432      0.178542     -0.140287
    14   Atom        0.203696     -0.040586      0.033184
    15   Atom       -0.013713      0.032138      0.123298
    16   Atom        0.205018     -0.069896      0.052306
    17   Atom        0.478869      0.301563      0.292131
    18   Atom       -0.020966      0.059700      0.104878
    19   Atom       -0.110465     -0.192290     -0.093473
    20   Atom        0.111215      0.132190     -0.033715
    21   Atom        0.247551     -0.090382      0.153111
    22   Atom        0.011415     -0.000205      0.015184
    23   Atom        0.015828      0.138229     -0.008116
    24   Atom        0.031409     -0.000073     -0.050037
    25   Atom        0.140304     -0.206961      0.094135
    26   Atom       -0.564995     -0.496822      0.971735
    27   Atom        0.011770     -0.214283      0.013309
    28   Atom       -0.059165      0.043023      0.201938
    29   Atom       -0.171288      0.473845     -0.334875
    30   Atom        0.041639     -0.017208     -0.144359
    31   Atom       -0.000507      0.224352     -0.083681
    32   Atom       -0.572007      0.858980     -0.262527
    33   Atom       -0.109954      0.030143      0.013226
    34   Atom       -1.190818      0.238181     -0.257416
    35   Atom       -0.224385      0.125954      0.116371
    36   Atom       -0.131411     -0.037228     -0.016579
    37   Atom       -0.010566     -0.002971     -0.181715
    38   Atom        0.168774     -0.127334      0.135048
    39   Atom        0.025567     -0.582888      0.189992
    40   Atom        0.186946     -0.083748      0.102674
    41   Atom       -0.286074     -0.133993     -0.070856
    42   Atom        0.098293     -0.931965      0.218689
    43   Atom       -0.123525     -0.031826      0.001269
    44   Atom       -0.098626     -0.163537     -0.146850
    45   Atom       -0.167988      0.103972      0.132397
    46   Atom        0.500733      0.413055      0.170729
    47   Atom        0.019705      0.185998     -0.102581
    48   Atom        0.007324     -0.137114     -0.160210
    49   Atom        0.407053     -0.176567     -0.772042
    50   Atom       -0.097786     -0.170881     -0.135600
    51   Atom        0.237690     -0.053259      0.127524
    52   Atom        0.177258     -0.091342      0.118779
    53   Atom       -0.025458      0.280861      0.462800
    54   Atom       -0.149995      0.058235      0.083882
    55   Atom        0.141963      0.145697     -0.109574
    56   Atom        0.726504      0.225629      0.193525
    57   Atom        0.078031      0.039380     -0.051799
    58   Atom        0.043963      0.818243     -1.745533
    59   Atom        0.105681      0.091453      0.010890
    60   Atom        0.025460      0.115306     -0.111902
    61   Atom       -0.131256      0.144196      0.167723
    62   Atom       -0.071478     -0.150179     -0.029633
    63   Atom       -0.437829     -0.224526      0.395691
    64   Atom       -0.065516     -0.155818     -0.070612
    65   Atom       -0.183896      0.128765      0.110777
    66   Atom       -0.659271     -0.563165      0.859956
    67   Atom       -0.121769      0.181260      0.099629
    68   Atom       -0.011148     -0.044480      0.184631
    69   Atom        0.142525     -0.052367      0.107285
    70   Atom        0.570262     -0.249959     -0.280400
    71   Atom        0.034360      0.093674     -0.214298
    72   Atom        0.214286      0.048347     -0.063794
    73   Atom        0.895510     -0.640004     -0.607931
    74   Atom        0.069038     -0.249762      0.047243
    75   Atom       -0.176712     -0.085724     -0.059233
    76   Atom        0.200943     -0.076924      0.070999
    77   Atom       -0.607209     -0.099902      0.225065
    78   Atom       -0.078003      0.083852      0.204746
    79   Atom       -0.260658      0.005395     -0.118160
    80   Atom       -0.986969     -0.311304      0.277457
    81   Atom        0.053340     -0.080025      0.016375
    82   Atom        1.547258     -0.746984      0.292301
    83   Atom       -0.053439     -0.174275     -0.035824
    84   Atom        0.073030      0.107564     -0.180059
    85   Atom        0.043150      0.086998     -0.166540
    86   Atom       -0.078112      0.068434      0.209519
    87   Atom        0.692008      0.090658      0.132081
    88   Atom        0.177108     -0.059884      0.041794
    89   Atom       -0.117500     -0.182053     -0.127315
    90   Atom        0.075580      0.175493     -0.107561
    91   Atom        0.049574     -0.036343      0.141837
    92   Atom       -0.128894      0.067514      0.160408
    93   Atom       -0.023370      0.085590     -0.046724
 --------------------------------------------------------


 ---------------------------------------------------------------------------------
              Nuclear Quadrupole in Principal Axis System
 ---------------------------------------------------------------------------------

       Atom             a.u.   MegaHertz   Gauss  10(-4) cm-1        Axes

              Baa    -0.2983  -159.148   -56.788   -53.086  0.8937 -0.3137 -0.3208
     1 H(1)   Bbb     0.1422    75.895    27.081    25.316  0.4450  0.7115  0.5438
              Bcc     0.1560    83.254    29.707    27.770  0.0577 -0.6288  0.7754
 
              Baa    -0.0335    -4.502    -1.606    -1.502 -0.3040  0.6877  0.6593
     2 C(13)  Bbb     0.0044     0.592     0.211     0.198  0.8718  0.4799 -0.0986
              Bcc     0.0291     3.910     1.395     1.304  0.3842 -0.5448  0.7454
 
              Baa    -0.3327   -44.651   -15.933   -14.894 -0.0094 -0.5967  0.8024
     3 C(13)  Bbb     0.1147    15.395     5.493     5.135  0.9047  0.3367  0.2610
              Bcc     0.2180    29.256    10.439     9.759 -0.4259  0.7284  0.5366
 
              Baa    -0.9948    71.984    25.686    24.011  0.7929 -0.5805 -0.1850
     4 O(17)  Bbb    -0.5520    39.945    14.253    13.324 -0.1691 -0.5014  0.8485
              Bcc     1.5468  -111.928   -39.939   -37.335  0.5854  0.6415  0.4957
 
              Baa    -0.2988  -159.419   -56.885   -53.177  0.5905 -0.2078  0.7798
     5 H(1)   Bbb     0.1486    79.260    28.282    26.438 -0.0704  0.9493  0.3062
              Bcc     0.1502    80.159    28.603    26.738  0.8040  0.2357 -0.5460
 
              Baa    -0.3016  -160.893   -57.411   -53.668  0.4441  0.7402 -0.5048
     6 H(1)   Bbb     0.1487    79.365    28.320    26.473 -0.0044  0.5652  0.8249
              Bcc     0.1528    81.528    29.091    27.195  0.8960 -0.3641  0.2542
 
              Baa    -0.4715   -18.184    -6.489    -6.066  0.7038 -0.5249 -0.4786
     7 N(14)  Bbb    -0.3897   -15.028    -5.362    -5.013  0.7090  0.5605  0.4279
              Bcc     0.8611    33.212    11.851    11.078  0.0436 -0.6406  0.7667
 
              Baa    -0.3105   -41.664   -14.867   -13.898  0.1548  0.7217  0.6747
     8 C(13)  Bbb     0.0976    13.102     4.675     4.370 -0.3615 -0.5942  0.7185
              Bcc     0.2128    28.562    10.192     9.527  0.9194 -0.3551  0.1689
 
              Baa    -0.3655   -49.042   -17.500   -16.359  0.6562  0.6807  0.3258
     9 C(13)  Bbb     0.1117    14.984     5.347     4.998  0.7440 -0.5114 -0.4300
              Bcc     0.2538    34.059    12.153    11.361  0.1260 -0.5245  0.8420
 
              Baa    -0.9267    67.052    23.926    22.366 -0.5912  0.7444 -0.3104
    10 O(17)  Bbb    -0.4986    36.076    12.873    12.034  0.6744  0.6673  0.3161
              Bcc     1.4252  -103.128   -36.799   -34.400 -0.4424  0.0224  0.8965
 
              Baa    -0.1168   -15.677    -5.594    -5.229  0.2222  0.8479  0.4812
    11 C(13)  Bbb    -0.0068    -0.916    -0.327    -0.306  0.8808  0.0371 -0.4721
              Bcc     0.1237    16.594     5.921     5.535  0.4181 -0.5288  0.7386
 
              Baa    -2.4878  -101.997   -36.395   -34.022  0.0031  0.8331  0.5531
    12 S(33)  Bbb     0.8485    34.786    12.412    11.603  0.9057 -0.2368  0.3516
              Bcc     1.6393    67.211    23.983    22.419 -0.4239 -0.4998  0.7553
 
              Baa    -0.3889  -207.508   -74.044   -69.217  0.7805 -0.4701 -0.4120
    13 H(1)   Bbb     0.1594    85.030    30.341    28.363  0.6238  0.6284  0.4648
              Bcc     0.2296   122.478    43.703    40.854  0.0404 -0.6198  0.7838
 
              Baa    -0.2710  -144.603   -51.598   -48.234  0.7192 -0.6821  0.1325
    14 H(1)   Bbb     0.1263    67.379    24.043    22.475  0.0546  0.2455  0.9678
              Bcc     0.1447    77.224    27.555    25.759  0.6927  0.6888 -0.2138
 
              Baa    -0.2927  -156.156   -55.720   -52.088 -0.0794 -0.2956  0.9520
    15 H(1)   Bbb     0.1428    76.168    27.179    25.407  0.7073  0.6562  0.2627
              Bcc     0.1499    79.988    28.542    26.681  0.7024 -0.6943 -0.1569
 
              Baa    -0.2940  -156.860   -55.971   -52.323  0.7653 -0.6116  0.2006
    16 H(1)   Bbb     0.1429    76.229    27.200    25.427  0.5221  0.7721  0.3624
              Bcc     0.1511    80.631    28.771    26.896 -0.3765 -0.1726  0.9102
 
              Baa    -0.5474   -21.113    -7.534    -7.042 -0.2876 -0.1726  0.9421
    17 N(14)  Bbb    -0.2779   -10.717    -3.824    -3.575  0.7118 -0.6967  0.0897
              Bcc     0.8253    31.830    11.358    10.617  0.6408  0.6963  0.3233
 
              Baa    -0.2293   -30.764   -10.977   -10.262 -0.1963 -0.3137  0.9290
    18 C(13)  Bbb     0.0994    13.342     4.761     4.450  0.9802 -0.0385  0.1941
              Bcc     0.1298    17.422     6.217     5.811 -0.0251  0.9487  0.3151
 
              Baa    -0.2953  -157.558   -56.221   -52.556  0.6953  0.3449  0.6305
    19 H(1)   Bbb     0.1412    75.324    26.877    25.125 -0.4792 -0.4314  0.7644
              Bcc     0.1541    82.234    29.343    27.430 -0.5357  0.8336  0.1347
 
              Baa    -0.2958  -157.815   -56.312   -52.642  0.9049 -0.2684 -0.3303
    20 H(1)   Bbb     0.1394    74.386    26.543    24.812  0.1967 -0.4244  0.8838
              Bcc     0.1564    83.430    29.770    27.829  0.3774  0.8648  0.3313
 
              Baa    -0.3617  -192.990   -68.864   -64.375 -0.5888  0.7202 -0.3669
    21 H(1)   Bbb     0.1408    75.143    26.813    25.065 -0.5182  0.0120  0.8552
              Bcc     0.2209   117.847    42.051    39.309  0.6203  0.6936  0.3661
 
              Baa    -0.2948  -157.315   -56.134   -52.475 -0.0254  0.9991 -0.0350
    22 H(1)   Bbb     0.1393    74.311    26.516    24.787 -0.0120  0.0347  0.9993
              Bcc     0.1556    83.004    29.618    27.687  0.9996  0.0258  0.0111
 
              Baa    -0.2998  -159.977   -57.084   -53.363  0.9446 -0.0392 -0.3258
    23 H(1)   Bbb     0.1474    78.634    28.059    26.229  0.2704  0.6553  0.7053
              Bcc     0.1525    81.343    29.025    27.133 -0.1859  0.7543 -0.6296
 
              Baa    -0.0701    -9.401    -3.355    -3.136 -0.2620  0.7851  0.5613
    24 C(13)  Bbb     0.0156     2.091     0.746     0.698  0.7524 -0.1981  0.6282
              Bcc     0.0545     7.310     2.609     2.438  0.6044  0.5869 -0.5388
 
              Baa    -0.3586   -48.118   -17.170   -16.050  0.7702 -0.3002  0.5628
    25 C(13)  Bbb     0.1272    17.066     6.090     5.693 -0.5721  0.0651  0.8176
              Bcc     0.2314    31.052    11.080    10.358  0.2821  0.9516  0.1216
 
              Baa    -0.9042    65.425    23.345    21.823  0.5848  0.7493 -0.3106
    26 O(17)  Bbb    -0.6085    44.033    15.712    14.688  0.7299 -0.3191  0.6044
              Bcc     1.5127  -109.458   -39.057   -36.511 -0.3538  0.5802  0.7336
 
              Baa    -0.2993  -159.708   -56.988   -53.273  0.5853 -0.0397  0.8099
    27 H(1)   Bbb     0.1461    77.947    27.814    26.000 -0.1820  0.9669  0.1789
              Bcc     0.1532    81.761    29.174    27.272  0.7901  0.2522 -0.5587
 
              Baa    -0.2927  -156.194   -55.734   -52.101  0.1682  0.7972 -0.5798
    28 H(1)   Bbb     0.1443    76.978    27.468    25.677  0.0007  0.5881  0.8088
              Bcc     0.1485    79.216    28.266    26.424  0.9858 -0.1364  0.0984
 
              Baa    -0.5560   -21.443    -7.651    -7.152 -0.2093  0.7247  0.6565
    29 N(14)  Bbb    -0.2092    -8.067    -2.879    -2.691  0.6162  0.6190 -0.4869
              Bcc     0.7651    29.510    10.530     9.843  0.7593 -0.3026  0.5761
 
              Baa    -0.2427   -32.574   -11.623   -10.865 -0.0696  0.8641  0.4985
    30 C(13)  Bbb     0.0736     9.881     3.526     3.296  0.4104 -0.4307  0.8038
              Bcc     0.1691    22.692     8.097     7.569  0.9092  0.2605 -0.3247
 
              Baa    -0.3589   -48.155   -17.183   -16.063 -0.5506  0.1190  0.8262
    31 C(13)  Bbb     0.1118    14.999     5.352     5.003  0.7958  0.3735  0.4766
              Bcc     0.2471    33.156    11.831    11.060 -0.2519  0.9199 -0.3004
 
              Baa    -0.9315    67.400    24.050    22.482  0.3439  0.9374 -0.0545
    32 O(17)  Bbb    -0.5574    40.335    14.392    13.454 -0.4630  0.2198  0.8586
              Bcc     1.4889  -107.734   -38.442   -35.936  0.8169 -0.2701  0.5097
 
              Baa    -0.1825   -24.487    -8.738    -8.168  0.9167  0.3717 -0.1469
    33 C(13)  Bbb     0.0440     5.904     2.107     1.969  0.1398  0.0459  0.9891
              Bcc     0.1385    18.583     6.631     6.199 -0.3744  0.9272  0.0099
 
              Baa    -2.2835   -93.623   -33.407   -31.229  0.9260  0.3758 -0.0359
    34 S(33)  Bbb     0.8123    33.305    11.884    11.110 -0.2541  0.6909  0.6768
              Bcc     1.4712    60.318    21.523    20.120  0.2791 -0.6176  0.7353
 
              Baa    -0.3518  -187.708   -66.979   -62.613  0.5622  0.7508 -0.3466
    35 H(1)   Bbb     0.1416    75.532    26.952    25.195 -0.3208  0.5843  0.7454
              Bcc     0.2102   112.176    40.027    37.418  0.7623 -0.3079  0.5693
 
              Baa    -0.2857  -152.414   -54.385   -50.840  0.9390  0.3308  0.0942
    36 H(1)   Bbb     0.1372    73.201    26.120    24.417 -0.3435  0.8884  0.3044
              Bcc     0.1485    79.213    28.265    26.423  0.0170 -0.3182  0.9479
 
              Baa    -0.2926  -156.139   -55.714   -52.082  0.0245  0.8838  0.4672
    37 H(1)   Bbb     0.1438    76.716    27.374    25.590  0.8398  0.2353 -0.4892
              Bcc     0.1489    79.422    28.340    26.492  0.5423 -0.4043  0.7365
 
              Baa    -0.2931  -156.403   -55.809   -52.171 -0.6086  0.6306 -0.4816
    38 H(1)   Bbb     0.1441    76.881    27.433    25.645  0.7475  0.2520 -0.6146
              Bcc     0.1490    79.523    28.376    26.526  0.2662  0.7341  0.6247
 
              Baa    -0.5555   -21.424    -7.645    -7.146  0.7258 -0.4270  0.5393
    39 N(14)  Bbb    -0.2320    -8.949    -3.193    -2.985  0.4287  0.8939  0.1309
              Bcc     0.7875    30.373    10.838    10.131 -0.5380  0.1362  0.8319
 
              Baa    -0.2590   -34.756   -12.402   -11.593 -0.6276  0.6494 -0.4293
    40 C(13)  Bbb     0.0799    10.727     3.827     3.578 -0.3861  0.2192  0.8960
              Bcc     0.1791    24.029     8.574     8.015  0.6760  0.7281  0.1132
 
              Baa    -0.3640   -48.849   -17.431   -16.294  0.6917  0.6420  0.3307
    41 C(13)  Bbb     0.0946    12.689     4.528     4.232 -0.0684 -0.3977  0.9150
              Bcc     0.2695    36.161    12.903    12.062  0.7189 -0.6555 -0.2312
 
              Baa    -0.9089    65.768    23.468    21.938 -0.5985  0.6952 -0.3982
    42 O(17)  Bbb    -0.5191    37.560    13.402    12.529  0.6271  0.7158  0.3072
              Bcc     1.4280  -103.328   -36.870   -34.467 -0.4986  0.0658  0.8643
 
              Baa    -0.3534  -188.567   -67.285   -62.899  0.2470  0.9689  0.0122
    43 H(1)   Bbb     0.1431    76.354    27.245    25.469  0.8017 -0.2114  0.5591
              Bcc     0.2103   112.213    40.040    37.430 -0.5443  0.1283  0.8290
 
              Baa    -0.2896  -154.501   -55.130   -51.536  0.5108  0.4636  0.7240
    44 H(1)   Bbb     0.1388    74.062    26.427    24.704 -0.5898  0.8017 -0.0972
              Bcc     0.1508    80.439    28.703    26.832 -0.6255 -0.3773  0.6829
 
              Baa    -0.2880  -153.648   -54.826   -51.252  0.5600  0.7127 -0.4224
    45 H(1)   Bbb     0.1363    72.707    25.944    24.253  0.7870 -0.6169  0.0024
              Bcc     0.1517    80.941    28.882    26.999  0.2589  0.3338  0.9064
 
              Baa    -0.5714   -22.038    -7.864    -7.351 -0.5180  0.1777  0.8367
    46 N(14)  Bbb    -0.2683   -10.348    -3.692    -3.452 -0.4179  0.8009 -0.4288
              Bcc     0.8397    32.386    11.556    10.803  0.7464  0.5718  0.3406
 
              Baa    -0.2444   -32.793   -11.701   -10.938 -0.5765  0.3017  0.7593
    47 C(13)  Bbb     0.0586     7.857     2.804     2.621  0.5008  0.8648  0.0367
              Bcc     0.1858    24.936     8.898     8.318  0.6456 -0.4014  0.6497
 
              Baa    -0.3502   -46.997   -16.770   -15.676  0.2263  0.3470  0.9101
    48 C(13)  Bbb     0.1030    13.821     4.932     4.610 -0.4305  0.8738 -0.2261
              Bcc     0.2472    33.175    11.838    11.066  0.8738  0.3406 -0.3472
 
              Baa    -0.9007    65.175    23.256    21.740  0.9825 -0.1753  0.0624
    49 O(17)  Bbb    -0.6320    45.733    16.319    15.255  0.0139  0.4032  0.9150
              Bcc     1.5327  -110.909   -39.575   -36.995  0.1856  0.8982 -0.3986
 
              Baa    -0.2940  -156.865   -55.973   -52.325  0.5333  0.4106  0.7396
    50 H(1)   Bbb     0.1415    75.483    26.934    25.178  0.8111  0.0000 -0.5849
              Bcc     0.1525    81.382    29.039    27.146 -0.2402  0.9118 -0.3331
 
              Baa    -0.3509  -187.216   -66.803   -62.448 -0.5247  0.8027 -0.2834
    51 H(1)   Bbb     0.1383    73.778    26.326    24.610 -0.4635  0.0098  0.8861
              Bcc     0.2126   113.437    40.477    37.839  0.7140  0.5963  0.3669
 
              Baa    -0.2831  -151.034   -53.893   -50.380 -0.5692  0.7266 -0.3847
    52 H(1)   Bbb     0.1385    73.880    26.362    24.644 -0.4230  0.1425  0.8949
              Bcc     0.1446    77.154    27.531    25.736  0.7050  0.6721  0.2263
 
              Baa    -0.5980   -23.064    -8.230    -7.693  0.4080  0.8192 -0.4030
    53 N(14)  Bbb    -0.2689   -10.369    -3.700    -3.459  0.8865 -0.4610 -0.0397
              Bcc     0.8669    33.434    11.930    11.152  0.2183  0.3410  0.9143
 
              Baa    -0.2155   -28.913   -10.317    -9.644  0.6176  0.7025 -0.3536
    54 C(13)  Bbb     0.0871    11.683     4.169     3.897  0.4599  0.0422  0.8870
              Bcc     0.1284    17.230     6.148     5.747 -0.6380  0.7104  0.2971
 
              Baa    -0.3617   -48.536   -17.319   -16.190 -0.3628  0.8880  0.2827
    55 C(13)  Bbb     0.0774    10.389     3.707     3.465  0.6951  0.4599 -0.5526
              Bcc     0.2843    38.147    13.612    12.725  0.6207  0.0040  0.7840
 
              Baa    -0.9492    68.682    24.508    22.910 -0.0149 -0.2570  0.9663
    56 O(17)  Bbb    -0.5478    39.639    14.144    13.222 -0.4069  0.8843  0.2289
              Bcc     1.4970  -108.321   -38.652   -36.132  0.9133  0.3898  0.1177
 
              Baa    -0.1319   -17.704    -6.317    -5.905 -0.3428  0.7039  0.6222
    57 C(13)  Bbb    -0.0029    -0.385    -0.137    -0.128  0.1636 -0.6075  0.7773
              Bcc     0.1348    18.088     6.454     6.034  0.9251  0.3682  0.0931
 
              Baa    -2.4681  -101.188   -36.106   -33.753 -0.2103  0.5241  0.8253
    58 S(33)  Bbb     0.7645    31.342    11.184    10.455  0.8424  0.5256 -0.1191
              Bcc     1.7036    69.846    24.923    23.298 -0.4962  0.6701 -0.5520
 
              Baa    -0.3519  -187.752   -66.994   -62.627  0.9646 -0.2112 -0.1582
    59 H(1)   Bbb     0.1337    71.339    25.456    23.796  0.1357  0.9112 -0.3889
              Bcc     0.2182   116.413    41.539    38.831  0.2263  0.3536  0.9076
 
              Baa    -0.2901  -154.758   -55.221   -51.622 -0.2826  0.2741  0.9193
    60 H(1)   Bbb     0.1361    72.613    25.910    24.221  0.6991  0.7150  0.0017
              Bcc     0.1540    82.144    29.311    27.400  0.6568 -0.6432  0.3937
 
              Baa    -0.2989  -159.480   -56.906   -53.197 -0.5058 -0.5945  0.6251
    61 H(1)   Bbb     0.1443    76.974    27.466    25.676 -0.6954  0.7098  0.1125
              Bcc     0.1546    82.506    29.440    27.521  0.5106  0.3778  0.7724
 
              Baa    -0.2827  -150.826   -53.819   -50.310  0.9015  0.1866  0.3904
    62 H(1)   Bbb     0.1390    74.139    26.455    24.730 -0.0582  0.9463 -0.3179
              Bcc     0.1437    76.687    27.364    25.580 -0.4288  0.2639  0.8640
 
              Baa    -0.5474   -21.113    -7.534    -7.043  0.7066  0.0248  0.7072
    63 N(14)  Bbb    -0.4231   -16.317    -5.822    -5.443 -0.6109 -0.4831  0.6273
              Bcc     0.9705    37.430    13.356    12.485 -0.3572  0.8752  0.3262
 
              Baa    -0.2860   -38.375   -13.693   -12.801  0.8602  0.2029  0.4679
    64 C(13)  Bbb     0.0992    13.308     4.749     4.439 -0.5095  0.3806  0.7717
              Bcc     0.1868    25.067     8.945     8.361  0.0215  0.9022 -0.4307
 
              Baa    -0.3214   -43.130   -15.390   -14.387  0.6959  0.6338 -0.3376
[...]
 2319 Fit      -0.168272
 2320 Fit      -0.147484
 2321 Fit      -0.153907
 2322 Fit      -0.122942
 2323 Fit      -0.136625
 2324 Fit      -0.153577
 2325 Fit      -0.157114
 2326 Fit      -0.162686
 2327 Fit      -0.164195
 2328 Fit      -0.158940
 2329 Fit      -0.159690
 2330 Fit      -0.162648
 2331 Fit      -0.168536
 2332 Fit      -0.163219
 2333 Fit      -0.162901
 2334 Fit      -0.163573
 2335 Fit      -0.174098
 2336 Fit      -0.167775
 2337 Fit      -0.166226
 2338 Fit      -0.168125
 2339 Fit      -0.179657
 2340 Fit      -0.172003
 2341 Fit      -0.170893
 2342 Fit      -0.175650
 2343 Fit      -0.110010
 2344 Fit      -0.098057
 2345 Fit      -0.104594
 2346 Fit      -0.116603
 2347 Fit      -0.101753
 2348 Fit      -0.106386
 2349 Fit      -0.115361
 2350 Fit      -0.115134
 2351 Fit      -0.115675
 2352 Fit      -0.119932
 2353 Fit      -0.150483
 2354 Fit      -0.166004
 2355 Fit      -0.134985
 2356 Fit      -0.127751
 2357 Fit      -0.122425
 2358 Fit      -0.130400
 2359 Fit      -0.128151
 2360 Fit      -0.130660
 2361 Fit      -0.138689
 2362 Fit      -0.141846
 2363 Fit      -0.139194
 2364 Fit      -0.146429
 2365 Fit      -0.155463
 2366 Fit      -0.152028
 2367 Fit      -0.150958
 2368 Fit      -0.147098
 2369 Fit      -0.141133
 2370 Fit      -0.124169
 2371 Fit      -0.113609
 2372 Fit      -0.108006
 2373 Fit      -0.134219
 2374 Fit      -0.146356
 2375 Fit      -0.105496
 2376 Fit      -0.106973
 2377 Fit      -0.111300
 2378 Fit      -0.118009
 2379 Fit      -0.120632
 2380 Fit      -0.107774
 2381 Fit      -0.107311
 2382 Fit      -0.111494
 2383 Fit      -0.113621
 2384 Fit      -0.110975
 2385 Fit      -0.145719
 2386 Fit      -0.148999
 2387 Fit      -0.155343
 2388 Fit      -0.161425
 2389 Fit      -0.161119
 2390 Fit      -0.123911
 2391 Fit      -0.128112
 2392 Fit      -0.132639
 2393 Fit      -0.136651
 2394 Fit      -0.136144
 2395 Fit      -0.129708
 2396 Fit      -0.114977
 2397 Fit      -0.119390
 2398 Fit      -0.121971
 2399 Fit      -0.118500
 2400 Fit      -0.114076
 2401 Fit      -0.135070
 2402 Fit      -0.117857
 2403 Fit      -0.118885
 2404 Fit      -0.108043
 2405 Fit      -0.108556
 2406 Fit      -0.110665
 2407 Fit      -0.109934
 2408 Fit      -0.104055
 2409 Fit      -0.104275
 2410 Fit      -0.107358
 2411 Fit      -0.104824
 2412 Fit      -0.110739
 2413 Fit      -0.137015
 2414 Fit      -0.120958
 2415 Fit      -0.123345
 2416 Fit      -0.134527
 2417 Fit      -0.113357
 2418 Fit      -0.111615
 2419 Fit      -0.113541
 2420 Fit      -0.120925
 2421 Fit      -0.134839
 2422 Fit      -0.108062
 2423 Fit      -0.108060
 2424 Fit      -0.112561
 2425 Fit      -0.121850
 2426 Fit      -0.113417
 2427 Fit      -0.127520
 2428 Fit      -0.129791
 2429 Fit      -0.143213
 2430 Fit      -0.122793
 2431 Fit      -0.123653
 2432 Fit      -0.132832
 2433 Fit      -0.152368
 2434 Fit      -0.123491
 2435 Fit      -0.122583
 2436 Fit      -0.128055
 2437 Fit      -0.143088
 2438 Fit      -0.128672
 2439 Fit      -0.127203
 2440 Fit      -0.132822
 2441 Fit      -0.149830
 2442 Fit      -0.137409
 2443 Fit      -0.148314
 2444 Fit      -0.131820
 2445 Fit      -0.135108
 2446 Fit      -0.144993
 2447 Fit      -0.130967
 2448 Fit      -0.127867
 2449 Fit      -0.156991
 2450 Fit      -0.139114
 2451 Fit      -0.131521
 2452 Fit      -0.127491
 2453 Fit      -0.131856
 2454 Fit      -0.128522
 2455 Fit      -0.133675
 2456 Fit      -0.140726
 2457 Fit      -0.141846
 2458 Fit      -0.153033
 2459 Fit      -0.180878
 2460 Fit      -0.151257
 2461 Fit      -0.151407
 2462 Fit      -0.151212
 2463 Fit      -0.163113
 2464 Fit      -0.169030
 2465 Fit      -0.159054
 2466 Fit      -0.163964
 2467 Fit      -0.169482
 2468 Fit      -0.156111
 2469 Fit      -0.159754
 2470 Fit      -0.165399
 2471 Fit      -0.172384
 2472 Fit      -0.177654
 2473 Fit      -0.180007
 2474 Fit      -0.152868
 2475 Fit      -0.155998
 2476 Fit      -0.160732
 2477 Fit      -0.168412
 2478 Fit      -0.179140
 2479 Fit      -0.188683
 2480 Fit      -0.152606
 2481 Fit      -0.155590
 2482 Fit      -0.160487
 2483 Fit      -0.168917
 2484 Fit      -0.183146
 2485 Fit      -0.153746
 2486 Fit      -0.156839
 2487 Fit      -0.163199
 2488 Fit      -0.175978
 2489 Fit      -0.157002
 2490 Fit      -0.138300
 2491 Fit      -0.148495
 2492 Fit      -0.139260
 2493 Fit      -0.132961
 2494 Fit      -0.136054
 2495 Fit      -0.144329
 2496 Fit      -0.148969
 2497 Fit      -0.169588
 2498 Fit      -0.157494
 2499 Fit      -0.143090
 2500 Fit      -0.134727
 2501 Fit      -0.163757
 2502 Fit      -0.164100
 2503 Fit      -0.168970
 2504 Fit      -0.135739
 2505 Fit      -0.139322
 2506 Fit      -0.151736
 2507 Fit      -0.164100
 2508 Fit      -0.154611
 2509 Fit      -0.184445
 2510 Fit      -0.171706
 2511 Fit      -0.189557
 2512 Fit      -0.173660
 2513 Fit      -0.168161
 2514 Fit      -0.168221
 2515 Fit      -0.176785
 2516 Fit      -0.167619
 2517 Fit      -0.164709
 2518 Fit      -0.166474
 2519 Fit      -0.172900
 2520 Fit      -0.170299
 2521 Fit      -0.164680
 2522 Fit      -0.162256
 2523 Fit      -0.162985
 2524 Fit      -0.167224
 2525 Fit      -0.175558
 2526 Fit      -0.163618
 2527 Fit      -0.161355
 2528 Fit      -0.160645
 2529 Fit      -0.162711
 2530 Fit      -0.167979
 2531 Fit      -0.159659
 2532 Fit      -0.159904
 2533 Fit      -0.162074
 2534 Fit      -0.166271
 2535 Fit      -0.159050
 2536 Fit      -0.162297
 2537 Fit      -0.133367
 2538 Fit      -0.132610
 2539 Fit      -0.138011
 2540 Fit      -0.170850
 2541 Fit      -0.146179
 2542 Fit      -0.165551
 2543 Fit      -0.164340
 2544 Fit      -0.155493
 2545 Fit      -0.147466
 2546 Fit      -0.143850
 2547 Fit      -0.143566
 2548 Fit      -0.145536
 2549 Fit      -0.147366
 2550 Fit      -0.152236
 2551 Fit      -0.154937
 2552 Fit      -0.149253
 2553 Fit      -0.146448
 2554 Fit      -0.147172
 2555 Fit      -0.149533
 2556 Fit      -0.159694
 2557 Fit      -0.169132
 2558 Fit      -0.147624
 2559 Fit      -0.143394
 2560 Fit      -0.144410
 2561 Fit      -0.153573
 2562 Fit      -0.139136
 2563 Fit      -0.137489
 2564 Fit      -0.143316
 2565 Fit      -0.138165
 2566 Fit      -0.141987
 2567 Fit      -0.146847
 2568 Fit      -0.150604
 2569 Fit      -0.153825
 2570 Fit      -0.131715
 2571 Fit      -0.131879
 2572 Fit      -0.135111
 2573 Fit      -0.140676
 2574 Fit      -0.133814
 2575 Fit      -0.131938
 2576 Fit      -0.138769
 2577 Fit      -0.140480
 2578 Fit      -0.151987
 2579 Fit      -0.155303
 2580 Fit      -0.141473
 2581 Fit      -0.135690
 2582 Fit      -0.163014
 2583 Fit      -0.144969
 2584 Fit      -0.134528
 2585 Fit      -0.131568
 2586 Fit      -0.144417
 2587 Fit      -0.134781
 2588 Fit      -0.144725
 2589 Fit      -0.179063
 2590 Fit      -0.156405
 2591 Fit      -0.156628
 2592 Fit      -0.173452
 2593 Fit      -0.168830
 2594 Fit      -0.165353
 2595 Fit      -0.172209
 2596 Fit      -0.174797
 2597 Fit      -0.176250
 2598 Fit      -0.167625
 2599 Fit      -0.170952
 2600 Fit      -0.175521
 2601 Fit      -0.177770
 2602 Fit      -0.166280
 2603 Fit      -0.168359
 2604 Fit      -0.178520
 2605 Fit      -0.187501
 2606 Fit      -0.163625
 2607 Fit      -0.162910
 2608 Fit      -0.164808
 2609 Fit      -0.170066
 2610 Fit      -0.179632
 2611 Fit      -0.190209
 2612 Fit      -0.162743
 2613 Fit      -0.160457
 2614 Fit      -0.160880
 2615 Fit      -0.164214
 2616 Fit      -0.170569
 2617 Fit      -0.181633
 2618 Fit      -0.192642
 2619 Fit      -0.164929
 2620 Fit      -0.160280
 2621 Fit      -0.158995
 2622 Fit      -0.160452
 2623 Fit      -0.164639
 2624 Fit      -0.171774
 2625 Fit      -0.163014
 2626 Fit      -0.159023
 2627 Fit      -0.158987
 2628 Fit      -0.162227
 2629 Fit      -0.161637
 2630 Fit      -0.158024
 2631 Fit      -0.166248
 2632 Fit      -0.168354
 2633 Fit      -0.164789
 2634 Fit      -0.158038
 2635 Fit      -0.159277
 2636 Fit      -0.174590
 2637 Fit      -0.152162
 2638 Fit      -0.153555
 2639 Fit      -0.147996
 2640 Fit      -0.152918
 2641 Fit      -0.169870
 2642 Fit      -0.158794
 2643 Fit      -0.150413
 2644 Fit      -0.150215
 2645 Fit      -0.160988
 2646 Fit      -0.160057
 2647 Fit      -0.156827
 2648 Fit      -0.170401
 2649 Fit      -0.172421
 2650 Fit      -0.166794
 2651 Fit      -0.161175
 2652 Fit      -0.154759
 2653 Fit      -0.139081
 2654 Fit      -0.133567
 2655 Fit      -0.133313
 2656 Fit      -0.133342
 2657 Fit      -0.132345
 2658 Fit      -0.136816
 2659 Fit      -0.187599
 2660 Fit      -0.173076
 2661 Fit      -0.172640
 2662 Fit      -0.163320
 2663 Fit      -0.161368
 2664 Fit      -0.161195
 2665 Fit      -0.161390
 2666 Fit      -0.152456
 2667 Fit      -0.151875
 2668 Fit      -0.152824
 2669 Fit      -0.152672
 2670 Fit      -0.152551
 2671 Fit      -0.145295
 2672 Fit      -0.144677
 2673 Fit      -0.146251
 2674 Fit      -0.146402
 2675 Fit      -0.146027
 2676 Fit      -0.140181
 2677 Fit      -0.140848
 2678 Fit      -0.141691
 2679 Fit      -0.141420
 2680 Fit      -0.136713
 2681 Fit      -0.137490
 2682 Fit      -0.138263
 2683 Fit      -0.135521
 2684 Fit      -0.150052
 2685 Fit      -0.153189
 2686 Fit      -0.143959
 2687 Fit      -0.135315
 2688 Fit      -0.130800
 2689 Fit      -0.131070
 2690 Fit      -0.145194
 2691 Fit      -0.134794
 2692 Fit      -0.127526
 2693 Fit      -0.124459
 2694 Fit      -0.127190
 2695 Fit      -0.139309
 2696 Fit      -0.131489
 2697 Fit      -0.124628
 2698 Fit      -0.125985
 2699 Fit      -0.128807
 2700 Fit      -0.181875
 2701 Fit      -0.171617
 2702 Fit      -0.157407
 2703 Fit      -0.150507
 2704 Fit      -0.151010
 2705 Fit      -0.160962
 2706 Fit      -0.140991
 2707 Fit      -0.138848
 2708 Fit      -0.143879
 2709 Fit      -0.138754
 2710 Fit      -0.138736
 2711 Fit      -0.137576
 2712 Fit      -0.132878
 2713 Fit      -0.134604
 2714 Fit      -0.126084
 2715 Fit      -0.121687
 2716 Fit      -0.114616
 2717 Fit      -0.115575
 2718 Fit      -0.130249
 2719 Fit      -0.127127
 2720 Fit      -0.124878
 2721 Fit      -0.121822
 2722 Fit      -0.112614
 2723 Fit      -0.100199
 2724 Fit      -0.098745
 2725 Fit      -0.109431
 2726 Fit      -0.115710
 2727 Fit      -0.114391
 2728 Fit      -0.109100
 2729 Fit      -0.105929
 2730 Fit      -0.104145
 2731 Fit      -0.093666
 2732 Fit      -0.105438
 2733 Fit      -0.117229
 2734 Fit      -0.129453
 2735 Fit      -0.096564
 2736 Fit      -0.103423
 2737 Fit      -0.114529
 2738 Fit      -0.103615
 2739 Fit      -0.107733
 2740 Fit      -0.150698
 2741 Fit      -0.158078
 2742 Fit      -0.133263
 2743 Fit      -0.138070
 2744 Fit      -0.133802
 2745 Fit      -0.138034
 2746 Fit      -0.129158
 2747 Fit      -0.112317
 2748 Fit      -0.085265
 2749 Fit      -0.107847
 2750 Fit      -0.095900
 2751 Fit      -0.117429
 2752 Fit      -0.104172
 2753 Fit      -0.105235
 2754 Fit      -0.120879
 2755 Fit      -0.119796
 2756 Fit      -0.107909
 2757 Fit      -0.178818
 2758 Fit      -0.160657
 2759 Fit      -0.164750
 2760 Fit      -0.176931
 2761 Fit      -0.148442
 2762 Fit      -0.149308
 2763 Fit      -0.153144
 2764 Fit      -0.150352
 2765 Fit      -0.138801
 2766 Fit      -0.138265
 2767 Fit      -0.139262
 2768 Fit      -0.144097
 2769 Fit      -0.140882
 2770 Fit      -0.128947
 2771 Fit      -0.127942
 2772 Fit      -0.131071
 2773 Fit      -0.105626
 2774 Fit      -0.105478
 2775 Fit      -0.107121
 2776 Fit      -0.093940
 2777 Fit      -0.093383
 2778 Fit      -0.094711
 2779 Fit      -0.097299
 2780 Fit      -0.096675
 2781 Fit      -0.087985
 2782 Fit      -0.087148
 2783 Fit      -0.088112
 2784 Fit      -0.088365
 2785 Fit      -0.091487
 2786 Fit      -0.085184
 2787 Fit      -0.083714
 2788 Fit      -0.088928
 2789 Fit      -0.082225
 2790 Fit      -0.089125
 2791 Fit      -0.096789
 2792 Fit      -0.082623
 2793 Fit      -0.079926
 2794 Fit      -0.082379
 2795 Fit      -0.088271
 2796 Fit      -0.082021
 2797 Fit      -0.081191
 2798 Fit      -0.086772
 2799 Fit      -0.092301
 2800 Fit      -0.089029
 2801 Fit      -0.084944
 2802 Fit      -0.122951
 2803 Fit      -0.163901
 2804 Fit      -0.137323
 2805 Fit      -0.124328
 2806 Fit      -0.120374
 2807 Fit      -0.131034
 2808 Fit      -0.116388
 2809 Fit      -0.109641
 2810 Fit      -0.117004
 2811 Fit      -0.105770
 2812 Fit      -0.118915
 2813 Fit      -0.110744
 2814 Fit      -0.113462
 2815 Fit      -0.118433
 2816 Fit      -0.100314
 2817 Fit      -0.104205
 2818 Fit      -0.161816
 2819 Fit      -0.142961
 2820 Fit      -0.134791
 2821 Fit      -0.119359
 2822 Fit      -0.123155
 2823 Fit      -0.196805
 2824 Fit      -0.184717
 2825 Fit      -0.179056
 2826 Fit      -0.173315
 2827 Fit      -0.177620
 2828 Fit      -0.189516
 2829 Fit      -0.196296
 2830 Fit      -0.175188
 2831 Fit      -0.169094
 2832 Fit      -0.167199
 2833 Fit      -0.169310
 2834 Fit      -0.174971
 2835 Fit      -0.183020
 2836 Fit      -0.186237
 2837 Fit      -0.174998
 2838 Fit      -0.167626
 2839 Fit      -0.164010
 2840 Fit      -0.164560
 2841 Fit      -0.169275
 2842 Fit      -0.177412
 2843 Fit      -0.186531
 2844 Fit      -0.184746
 2845 Fit      -0.180422
 2846 Fit      -0.167976
 2847 Fit      -0.161108
 2848 Fit      -0.160324
 2849 Fit      -0.165476
 2850 Fit      -0.177602
 2851 Fit      -0.112646
 2852 Fit      -0.096434
 2853 Fit      -0.106504
 2854 Fit      -0.158987
 2855 Fit      -0.144333
 2856 Fit      -0.143250
 2857 Fit      -0.153881
 2858 Fit      -0.144651
 2859 Fit      -0.130957
 2860 Fit      -0.127463
 2861 Fit      -0.131840
 2862 Fit      -0.134720
 2863 Fit      -0.123165
 2864 Fit      -0.120618
 2865 Fit      -0.125015
 2866 Fit      -0.119308
 2867 Fit      -0.120003
 2868 Fit      -0.149647
 2869 Fit      -0.139052
 2870 Fit      -0.127358
 2871 Fit      -0.141019
 2872 Fit      -0.134861
 2873 Fit      -0.171747
 2874 Fit      -0.170155
 2875 Fit      -0.174998
 2876 Fit      -0.177112
 2877 Fit      -0.175411
 2878 Fit      -0.171779
 2879 Fit      -0.168972
 2880 Fit      -0.170317
 2881 Fit      -0.176410
 2882 Fit      -0.183464
 2883 Fit      -0.186299
 2884 Fit      -0.184708
 2885 Fit      -0.183010
 2886 Fit      -0.180769
 2887 Fit      -0.177565
 2888 Fit      -0.174373
 2889 Fit      -0.171024
 2890 Fit      -0.168404
 2891 Fit      -0.167820
 2892 Fit      -0.180928
 2893 Fit      -0.195470
 2894 Fit      -0.188547
 2895 Fit      -0.184188
 2896 Fit      -0.181162
 2897 Fit      -0.179279
 2898 Fit      -0.175265
 2899 Fit      -0.170470
 2900 Fit      -0.185998
 2901 Fit      -0.183811
 2902 Fit      -0.178477
 2903 Fit      -0.180605
 2904 Fit      -0.176189
 2905 Fit      -0.175357
 2906 Fit      -0.176479
 2907 Fit      -0.181934
 2908 Fit      -0.178876
 2909 Fit      -0.174258
 2910 Fit      -0.171958
 2911 Fit      -0.177379
 2912 Fit      -0.175405
 2913 Fit      -0.189870
 2914 Fit      -0.180898
 2915 Fit      -0.173607
 2916 Fit      -0.186430
 2917 Fit      -0.185609
 2918 Fit      -0.174792
 2919 Fit      -0.178009
 2920 Fit      -0.178973
 2921 Fit      -0.177390
 2922 Fit      -0.188504
 2923 Fit      -0.175144
 2924 Fit      -0.171298
 2925 Fit      -0.193962
 2926 Fit      -0.152883
 2927 Fit      -0.135417
 2928 Fit      -0.128962
 2929 Fit      -0.128133
 2930 Fit      -0.129525
 2931 Fit      -0.125333
 2932 Fit      -0.125780
 2933 Fit      -0.133659
 2934 Fit      -0.150505
 2935 Fit      -0.130753
 2936 Fit      -0.177150
 2937 Fit      -0.155665
 2938 Fit      -0.163285
 2939 Fit      -0.142246
 2940 Fit      -0.158555
 2941 Fit      -0.145034
 2942 Fit      -0.132768
 2943 Fit      -0.143352
 2944 Fit      -0.163752
 2945 Fit      -0.130811
 2946 Fit      -0.131070
 2947 Fit      -0.141341
 2948 Fit      -0.159751
 2949 Fit      -0.187716
 2950 Fit      -0.127538
 2951 Fit      -0.136006
 2952 Fit      -0.150084
 2953 Fit      -0.129853
 2954 Fit      -0.147766
 2955 Fit      -0.134719
 2956 Fit      -0.125910
 2957 Fit      -0.123962
 2958 Fit      -0.130656
 2959 Fit      -0.152584
 2960 Fit      -0.134679
 2961 Fit      -0.127335
 2962 Fit      -0.167973
 2963 Fit      -0.141248
 2964 Fit      -0.160345
 2965 Fit      -0.146547
 2966 Fit      -0.162211
 2967 Fit      -0.145400
 2968 Fit      -0.136037
 2969 Fit      -0.182892
 2970 Fit      -0.165432
 2971 Fit      -0.148068
 2972 Fit      -0.136258
 2973 Fit      -0.130611
 2974 Fit      -0.190607
 2975 Fit      -0.173585
 2976 Fit      -0.153527
 2977 Fit      -0.139792
 2978 Fit      -0.179019
 2979 Fit      -0.158439
 -----------------------------------------------------------------
 Leave Link  602 at Fri Aug 14 17:41:35 2015, MaxMem=  786432000 cpu:      13.3

 Test job not archived.
 1\1\GINC-C2A-S10\SP\RB3LYP\6-31G(d)\C26H42N10O10S4Zn1(2-)\ROOT\14-Aug-
 2015\0\\#N B3LYP/6-31G* Integral=(Grid=UltraFine) Pop(MK,ReadRadii) SC
 F=XQC IOp(6/33=2)\\CLR\\-2,1\H,0,19.368,53.242,51.265\C,0,19.778,54.25
 1,51.212\C,0,18.904,55.134,50.319\O,0,19.264,56.288,50.038\H,0,20.809,
 54.225,50.86\H,0,19.813,54.682,52.212\N,0,17.791,54.601,49.826\C,0,16.
 907,55.427,49.022\C,0,16.024,56.213,49.989\O,0,15.317,55.653,50.829\C,
 0,16.045,54.627,48.05\S,0,15.055,55.715,46.973\H,0,17.572,53.633,50.01
 4\H,0,17.501,56.104,48.407\H,0,16.685,54.01,47.419\H,0,15.363,53.987,4
 8.61\N,0,16.101,57.533,49.881\C,0,15.329,58.396,50.755\H,0,14.278,58.4
 31,50.468\H,0,15.754,59.4,50.751\H,0,16.703,57.945,49.183\H,0,15.39,58
 .026,51.778\H,0,15.071,51.842,44.355\C,0,15.55,52.786,44.613\C,0,14.92
 1,53.743,43.57\O,0,14.653,53.316,42.449\H,0,16.615,52.67,44.41\H,0,15.
 306,53.049,45.642\N,0,14.67,55.011,43.896\C,0,14.057,55.891,42.884\C,0
 ,15.017,56.344,41.773\O,0,14.613,56.524,40.62\C,0,13.39,57.099,43.544\
 S,0,14.531,58.159,44.482\H,0,14.9,55.347,44.82\H,0,13.233,55.368,42.39
 9\H,0,12.929,57.724,42.779\H,0,12.625,56.757,44.241\N,0,16.287,56.546,
 42.123\C,0,17.289,56.993,41.151\C,0,17.319,58.499,40.93\O,0,18.013,58.
 971,40.04\H,0,16.575,56.39,43.078\H,0,18.282,56.701,41.492\H,0,17.088,
 56.533,40.183\N,0,16.606,59.235,41.784\C,0,16.476,60.687,41.721\C,0,16
 .819,61.4,43.03\O,0,17.517,62.407,42.995\H,0,15.456,60.949,41.44\H,0,1
 6.108,58.786,42.54\H,0,17.146,61.079,40.956\N,0,16.342,60.894,44.168\C
 ,0,16.609,61.52,45.47\C,0,18.102,61.749,45.643\O,0,18.909,61.12,44.947
 \C,0,16.075,60.662,46.631\S,0,17.056,59.153,47.047\H,0,15.779,60.056,4
 4.148\H,0,16.092,62.478,45.526\H,0,16.044,61.261,47.541\H,0,15.071,60.
 311,46.392\N,0,18.482,62.62,46.575\C,0,19.906,62.921,46.785\C,0,20.759
 ,61.711,47.188\O,0,21.928,61.589,46.784\H,0,20.044,63.745,47.485\H,0,1
 7.787,63.08,47.145\H,0,20.334,63.317,45.864\N,0,20.16,60.808,47.963\C,
 0,20.858,59.609,48.41\C,0,21.27,58.767,47.232\O,0,22.399,58.286,47.174
 \H,0,19.202,60.95,48.251\H,0,21.749,59.894,48.969\H,0,20.2,59.022,49.0
 51\N,0,20.342,58.574,46.298\C,0,20.622,57.804,45.085\C,0,21.647,58.549
 ,44.244\O,0,22.493,57.919,43.615\C,0,19.34,57.582,44.265\S,0,18.138,56
 .425,45.\H,0,19.418,58.964,46.42\H,0,21.016,56.825,45.358\H,0,18.819,5
 8.531,44.14\H,0,19.599,57.179,43.286\N,0,21.559,59.881,44.217\C,0,22.5
 01,60.696,43.447\H,0,23.514,60.542,43.819\H,0,22.224,61.75,43.48\H,0,2
 0.829,60.346,44.737\H,0,22.456,60.409,42.396\Zn,0,16.2,57.412,45.833\\
 Version=AM64L-G09RevC.01\State=1-A\HF=-5688.0255793\RMSD=5.467e-09\Dip
 ole=-1.4477861,3.3342497,4.7134052\Quadrupole=-24.5154934,45.8330521,-
 21.3175586,-34.2178724,-2.2715662,6.9806732\PG=C01 [X(C26H42N10O10S4Zn
 1)]\\@


 ... I FELL INTO A REVERIE ... THE ATOMS WERE GAMBOLING BEFORE MY EYES
 ... I SAW HOW TWO SMALL ONES UNITED TO FORM A PAIR;
 HOW THE LARGER ONES SEIZED TWO OF THE SMALLER ONES;
 HOW STILL LARGER ONES KEPT HOLD OF THREE OR FOUR
 SMALLER ONES ... I SAW HOW THE LARGER ONES FORMED A CHAIN ...
 THIS WAS THE ORIGIN OF THE STRUCTURE THEORY.

                                   -- C.F.KEKULE VON STRADONITZ

 File lengths (MBytes):  RWF=    419 Int=      0 D2E=      0 Chk=     28 Scr=      1
 Normal termination of Gaussian 09 at Fri Aug 14 17:41:36 2015.
